<?xml version="1.0" encoding="UTF-8"?>

<!-- generated on 2025-08-21 08:20:02 by Eclipse SUMO sumo Version 1.24.0
<sumoConfiguration xmlns:xsi="http://www.w3.org/2001/XMLSchema-instance" xsi:noNamespaceSchemaLocation="http://sumo.dlr.de/xsd/sumoConfiguration.xsd">

    <input>
        <net-file value="net/shanghai_5km.net.xml"/>
        <route-files value="scenarios/S003/routes.rou.xml"/>
        <additional-files value="scenarios/common.types.xml"/>
    </input>

    <output>
        <summary-output value="scenarios/S003/summary.xml"/>
        <tripinfo-output value="scenarios/S003/tripinfo.xml"/>
        <vehroute-output value="scenarios/S003/vehroute.xml"/>
        <save-state.times value="999999"/>
    </output>

    <processing>
        <route-steps value="0"/>
    </processing>

    <random_number>
        <seed value="1"/>
    </random_number>

</sumoConfiguration>
-->

<routes xmlns:xsi="http://www.w3.org/2001/XMLSchema-instance" xsi:noNamespaceSchemaLocation="http://sumo.dlr.de/xsd/routes_file.xsd">
    <vehicle id="veh003_850" type="passenger" depart="61227.00" arrival="61341.00">
        <route edges="457547879#4 457547879#5 457547879#6 -872814564#1 -872814564#0 1271499736#0 1271499736#1 1271499736#2 1271499736#3 1152808621#1 1152808621#2 1152808621#3 40784659#0 40784659#1"/>
    </vehicle>

    <vehicle id="veh003_3491" type="passenger" depart="61226.00" arrival="61390.00">
        <route edges="47386145 47386124"/>
    </vehicle>

    <vehicle id="veh003_1656" type="passenger" depart="61320.00" arrival="61415.00">
        <route edges="169004589#0 169004589#1 169004589#2 666271198 9178721#0 9178721#1 9178721#2 9178721#3"/>
    </vehicle>

    <vehicle id="veh003_71" type="passenger" depart="61296.00" arrival="61431.00">
        <route edges="-226855595#1 -226855595#0 50372096#3 -1076605835 -424580478 -1119079290 -40786653 -1076615063#2 -1076615063#1 -1076615063#0 1326094900 1085107744#0 1064816190 1064816194"/>
    </vehicle>

    <vehicle id="veh003_4520" type="passenger" depart="61383.00" arrival="61504.00">
        <route edges="240666074#0 240666074#2 1064816197#2 900390007 900390003 1330117294 -1330117295#0 -1330117296 30620777"/>
    </vehicle>

    <vehicle id="veh003_1784" type="passenger" depart="61351.00" arrival="61515.00">
        <route edges="240666074#0 240666074#2 240666074#4 240666074#5 240666073 47267008#0 47267008#1 47267008#2 47267008#3 47267008#4 47267008#5 47267008#6 15676150#0 15676150#1 -15676150#1 -15676150#0"/>
    </vehicle>

    <vehicle id="veh003_4870" type="passenger" depart="61478.00" arrival="61519.00">
        <route edges="1064476622#0 1064476622#1 1254633078#0 1254633078#1 1272337500"/>
    </vehicle>

    <vehicle id="veh003_2890" type="passenger" depart="61310.00" arrival="61536.00">
        <route edges="-176637359#2 -176637359#1 24474354#4 24474354#5 987437456#0 987437456#1 987437456#2 987437456#3 1077974669#0 1077974669#1 1077974669#2 136752710 136752695#0 136752695#1 136752695#2 136752695#3 1074542798#0 -1080472036#0 -47281532#3 -47281532#2 -47281532#1 -47281532#0 1074542796#0 1074542796#1 1074542796#2 176026558#0 176026558#1 -39674883#1 39674883#1"/>
    </vehicle>

    <vehicle id="veh003_3618" type="passenger" depart="61380.00" arrival="61547.00">
        <route edges="-226855595#1 -226855595#0 50372096#3 -1076605835 39223941#0 39223941#1 39223941#2 1064816197#1 1064816197#2 900390007 900390003 1330117294 900390009#0 900390009#1 50372114#0 50372114#1 50372114#2 12104894 -1324597581 -1124366653"/>
    </vehicle>

    <vehicle id="veh003_3599" type="passenger" depart="61274.00" arrival="61551.00">
        <route edges="1005394019#0 1005394019#1 1005394019#2 12088962#10 40140141#0 40140141#1 40140141#2 40140141#3 1005394020#3 1063471490#0 1063471490#1 1063471490#2 1207401650#0 1207401650#1 1119184639#0 1119184639#1 1119184639#2 12088974#5 12088974#6 12088974#7-AddedOnRampEdge 12088974#7 1067953247#0 1067953247#1"/>
    </vehicle>

    <vehicle id="veh003_1356" type="passenger" depart="61394.00" arrival="61577.00">
        <route edges="136014464#0 177924165 177719682 1068208203 869126015 -1068139751"/>
    </vehicle>

    <vehicle id="veh003_3600" type="passenger" depart="61446.00" arrival="61579.00">
        <route edges="39674883#1 -176026558#1 -176026558#0 -1074542796#2 -1074542796#1 -1074542796#0 -175985052#5 -175985052#4 -175985052#3 -175985052#2 -175985052#1 -175985052#0 -175985051 -40113058#3 -49171011#1 -49171011#0 -1004820609#1 1004820609#1 49171011#0 49171011#1"/>
    </vehicle>

    <vehicle id="veh003_2004" type="passenger" depart="61501.00" arrival="61634.00">
        <route edges="41862226#1 -50590325#0 -1005002194#1 50590323#2 136232040 136232027 1074542795 -39658122#6 -39658122#5 -39658122#4 -39658122#3 -39658122#2 -39658122#1 -39658122#0 -1225879470#1 -1225879470#0 -1225879469"/>
    </vehicle>

    <vehicle id="veh003_865" type="passenger" depart="61376.00" arrival="61650.00">
        <route edges="30620777 50372114#2 1124366639#0 1124366639#1 1124366639#2 769245721 1077697575 44031989 654409980#0 654409980#1 654409980#2 654409980#3 50832815 656327322 1085107744#0 1064816190 1064816194"/>
    </vehicle>

    <vehicle id="veh003_3278" type="passenger" depart="61414.00" arrival="61671.00">
        <route edges="47386145 47386124 1073926476 967979578 -1235145933 1370898769 232359137"/>
    </vehicle>

    <vehicle id="veh003_2362" type="passenger" depart="61230.00" arrival="61682.00">
        <route edges="-141172463#0 141172463#0 141172463#1 141172463#2 141172463#3 141172463#4 141172463#5 1068434243#0 1068434243#1 477498780#0 477498780#1 477498780#2 168578589 -168577949#0 -168577951#2 -168577951#1 -168577951#0 -13858291 424580468#0 424580468#1 424580468#2 424580468#3 1067953244 656327321#0 656327321#1 50832816#0 50832816#1 1327147190#0 1327147190#1 449197597#0 449197597#1 71293415#0 71293415#1"/>
    </vehicle>

    <vehicle id="veh003_4004" type="passenger" depart="61446.00" arrival="61685.00">
        <route edges="-1080217656#1 -1080217656#0 1080217657 1080217655#0 1080217655#1 1080217655#2 987438287 177743542#0 177743542#1 177743542#2 177743542#3 -238492234#5 -238492234#4 -238492234#3 -238492234#2 -238492234#1 -238492234#0 238492234#0"/>
    </vehicle>

    <vehicle id="veh003_1719" type="passenger" depart="61415.00" arrival="61687.00">
        <route edges="238492234#0 238492234#1 238492234#2 238492234#3 238492234#4 238492234#5 39675267#1 39675267#2 177743535#0 -1080217655#2 -1080217655#1 -1080217655#0 -1080217657 -24462315#4 -24462315#3 -24462315#2 -24462315#1 -24462315#0 1092600147#0 1092600147#1 176637359#1 176637359#2 -176637359#2"/>
    </vehicle>

    <vehicle id="veh003_2943" type="passenger" depart="61504.00" arrival="61698.00">
        <route edges="40040179#12 -494389154#1 -494389154#0 33683398#2 33683398#3 39750944#0 39750944#1 39750944#2 39750944#3 39750944#4 39750944#5 39750944#6 -116866250#4 -116866250#3 -116866250#2 -116866250#1 -116866250#0 -39750994#4"/>
    </vehicle>

    <vehicle id="veh003_1928" type="passenger" depart="61247.00" arrival="61713.00">
        <route edges="1005394020#2 1005394020#3 1005394019#0 1005394019#1 1005394019#2 1005394019#3 1005394019#4 1005394019#5 1005394019#6 1005394019#7 1005394019#8 1005394019#9 1005394019#10 1004669106 10683634#0 10683634#1 10683634#2 1272480696 1272480709#0 1272480709#1 -1119184688 -85711353#1 -85711353#0 421846083 14788300#0 14788300#1 14788300#2 14788300#3 438751959 1073705836#0 1073705836#1 1073705836#2 1073705836#3 1322939163 610738424#0 610738424#1 610738424#2 610738424#3 610738424#4 220773636 -220773635#1 -220773635#0 -220770272"/>
    </vehicle>

    <vehicle id="veh003_1819" type="passenger" depart="61627.00" arrival="61715.00">
        <route edges="504456844 504456843#0 -613164648 613164647#2 504456843#2 48557297#1 48557297#2-AddedOnRampEdge 48557297#2 1255099044 -52205556"/>
    </vehicle>

    <vehicle id="veh003_47" type="passenger" depart="61603.00" arrival="61727.00">
        <route edges="900390006#1 1064816197#1 1064816197#2 900390007 900390003 1330117294 900390009#0 900390009#1 50372114#0 50372114#1 50372114#2 12104894 -1324597581 -1124366653"/>
    </vehicle>

    <vehicle id="veh003_2919" type="passenger" depart="61214.00" arrival="61732.00">
        <route edges="1262057048#0 1262057048#1 1262057048#2 1262057040 1262057037 1262057038 1324096361 1324039615#0 1324039615#0-AddedOffRampEdge 1324039615#1 1324039615#2 1262057029 1213743239 1217052997 1217053004 1217052996 39149255 1262057023#0-AddedOnRampEdge 1262057023#0 1262057023#1 1262057006 1292578240 1292578240-AddedOffRampEdge 1192417724#0 1192417724#1 1192417724#2 666886090 1217052982#0 1217052982#1 167052885#0 167052885#1 167052885#2 1196008695 40784445#0 40784445#1 40784445#3-AddedOnRampEdge 40784445#3 1255166892 166332795#0 166332795#1 1298040494-AddedOnRampEdge 1298040494 49219226 49219226-AddedOffRampEdge 1298040493 145007023 1255166890 176150324#0 176150324#1 176150325 558885222#0 558885222#1 558885222#2 558885222#3 -145007026 -175978283 -175971816#3 -175971816#2 -175971816#1 -175971816#0 -50590325#1 -50590325#0 -1005002194#1 50590323#2 136232040 136232027 1074542795 -39658122#6 -39658122#5 -39658122#4"/>
    </vehicle>

    <vehicle id="veh003_3681" type="passenger" depart="61209.00" arrival="61734.00">
        <route edges="-50383097#9 -50383097#8 -50383097#7 -50383097#6 -50383097#5 220755657#2 70979176#1 686415141#0 686415141#1 686415141#2 686415141#3 686415141#4 686415141#5-AddedOnRampEdge 686415141#5 -168577949#3 -168577949#2 -168577949#1 -168577949#0 -168577951#2 -168577951#1 -168577951#0 -13858291 424580468#0 424580468#1 424580468#2 424580468#3 1067953244 656327321#0 656327321#1 50832816#0 50832816#1 1327147190#0 1327147190#1 449197597#0 449197597#1 71293415#0 71293415#1 71293415#2 1270581676#0 1270581676#1 1270581677 1073926490#1 1067852464#0 220775319 -220770272"/>
    </vehicle>

    <vehicle id="veh003_4159" type="passenger" depart="61454.00" arrival="61734.00">
        <route edges="49219226 49219226-AddedOffRampEdge 1298040493 145007023 1255166890 176150324#0 176150324#1 176150325 558885222#0 558885222#1 558885222#2 558885222#3 -145007026 -175978283 -175971816#3 -175971816#2 -175971816#1 -175971816#0 -50590325#1 -50590325#0 -1005002194#1 50590323#2 136232040 136232027 1074542795 -39658122#6 -39658122#5 -39658122#4"/>
    </vehicle>

    <vehicle id="veh003_3580" type="passenger" depart="61357.00" arrival="61745.00">
        <route edges="504456844 504456843#0 -613164648 613164647#2 504456843#2 48557297#1 48557297#2-AddedOnRampEdge 48557297#2 1255099044 1255099047 504456840#0 504456840#1 1271083328 1119387517#0 1119387517#1 1242851131 1242851130#0 1242851130#1 1241643110 -39659506 51177341 12103170 1235082229 769245742 40322964 769245714 769245716#0 769245716#1 1255195544 1077697462#0 1077697462#1 1124366651 12104894 -1324597581 -1124366653"/>
    </vehicle>

    <vehicle id="veh003_4160" type="passenger" depart="61252.00" arrival="61748.00">
        <route edges="238492234#0 238492234#1 238492234#2 238492234#3 238492234#4 238492234#5 39675267#1 39675267#2 177743535#0 -1080217655#2 -1080217655#1 -1080217655#0 -1080217657 -24462315#4 -24462315#3 -24462315#2 -24462315#1 -24462315#0 -987438288 987437456#0 987437456#1 987437456#2 987437456#3 1077974669#0 1077974669#1 1077974669#2 136752710 136752695#0 136752695#1 136752695#2 136752695#3 1074542798#0 1074542798#1 1074542798#2 1074542798#3 974204304#0 974204304#1 -145007026 -175978283 -175971816#3 -175971816#2 -175971816#1 -175971816#0 -50590325#1 -50590325#0 -1005002194#1 50590323#2 136232040 136232027 1074542795 -39658122#6 -39658122#5 -39658122#4"/>
    </vehicle>

    <vehicle id="veh003_3647" type="passenger" depart="61370.00" arrival="61758.00">
        <route edges="238492234#0 238492234#1 238492234#2 238492234#3 238492234#4 238492234#5 39675267#1 39675267#2 177743535#0 177743535#1 177743535#2 1080217652 1080217652-AddedOffRampEdge 982225960 1068139753#0 1068139753#1 1074542777#0 1074542777#1 1074542776#0 1074542776#1 1074542776#1-AddedOffRampEdge 1325293229 177741559#0 177741559#1 -1327290528 -1327290524 -1068139751"/>
    </vehicle>

    <vehicle id="veh003_4171" type="passenger" depart="61656.00" arrival="61758.00">
        <route edges="-52205556 -52205557 -177688403 -504456842"/>
    </vehicle>

    <vehicle id="veh003_502" type="passenger" depart="61313.00" arrival="61759.00">
        <route edges="-52205556 -52205557 -177688403 -52205559#2 -52205559#1 -52205559#0 -52205558 -1255099045 1255099044 1255099047 504456840#0 504456840#1 1271083328 1119387517#0 1119387517#1 1214520060 1119387530 1068486055 1214520052 1254816432 1068486125 1068486126-AddedOnRampEdge 1068486126 1214520058 1131988441 967135082#0 967135082#1 -50843170 50843170"/>
    </vehicle>

    <vehicle id="veh003_29" type="passenger" depart="61385.00" arrival="61762.00">
        <route edges="-1124366653 769245720#0 769245720#1 769245720#2 769245720#3 769245720#4 769245720#5 1231065655 12107042#0 12107042#1 1273359371 813852688 813852688-AddedOffRampEdge 1337777290 813852690#0 813852690#1 51964855-AddedOnRampEdge 51964855 686928337#0 686928337#1 686928337#2 1074409234#0 1074409234#1 1074409234#2 1092372228#0 1092372228#1 1092372228#2 1323097555 136232030#0 136232030#1 1329667750 1329667751 -39658122#6 -39658122#5 -39658122#4"/>
    </vehicle>

    <vehicle id="veh003_1658" type="passenger" depart="61211.00" arrival="61766.00">
        <route edges="1067953247#1 1067953247#2 1067953247#3 -14924729#3 -14924729#2 -14924729#1 -14924729#0 -1332638391#2 -1332638391#1 -1332638391#0 -1068434202 -1214520079 -968332509 -1292541108 -509646052 1068916339 1254816455 10628444#0 10628444#1 10628444#2 1335304377 900279886 1335304385 40297715#0 40297715#1 40297715#2 40297715#3 1235501863 1324405519 49224804#0 49224804#1 49224804#2 1123874585 1064398308 15417580#0 15417580#1 15417580#2 15417580#3 15417580#4 -238219437#3 -238219437#2 39697113#0 39697113#1 39697113#2 39697113#3"/>
    </vehicle>

    <vehicle id="veh003_4640" type="passenger" depart="61313.00" arrival="61766.00">
        <route edges="1064816194 1064816193 50832814#1 50832814#2-AddedOnRampEdge 50832814#2 769245718 1077697462#0 1077697462#1 1124366651 1125843932 51177335#0 51177335#1 1322066956#0 1322066956#1 39659484#0 39659484#1 39659484#2 12103213#0 12103213#1 1085107695#0 1085107695#1 1085107695#2 -1068434254#1 -1068434254#0 -1124366648 83563432#0 83563432#1 428730793#0 428730793#1 460316444 1326094888 428730818#0 428730818#1 428730818#2 428730818#3 1421564739 428730807 1226645407 1226645410 1074771170 47087992#0 47087992#1 47087992#2 47087992#3 13909444#7 1118804256#0 1118804256#1"/>
    </vehicle>

    <vehicle id="veh003_603" type="passenger" depart="61383.00" arrival="61775.00">
        <route edges="-52205556 -52205557 -177688403 -48557294 1125864850 1125864850-AddedOffRampEdge 1255166900 1068486118 686928344#0 686928344#1 1074542788 686928347#0 686928347#1 686928347#2 1205403621 131672876 52205445 52205301 1235082229 769245742 40322964 769245714 769245716#0 769245716#1 1255195544 1077697462#0 1077697462#1 1124366651 1125843932 51177335#0 51177335#1 730932886#0 730932886#1 -1330117295#0 -1330117296 30620777"/>
    </vehicle>

    <vehicle id="veh003_3650" type="passenger" depart="61236.00" arrival="61782.00">
        <route edges="238492234#0 238492234#1 238492234#2 238492234#3 238492234#4 238492234#5 39675267#1 39675267#2 177743535#0 177743535#1 177743535#2 1080217652 1080217652-AddedOffRampEdge 982225960 1068139753#0 1068139753#1 1074542777#0 1074542777#1 1074542776#0 1074542776#1 1074542776#1-AddedOffRampEdge 50775229 477993576 477993575 10632119 47281536 1325293228-AddedOnRampEdge 1325293228 1332752598 1332752598-AddedOffRampEdge 24462312#0 24462312#1 24462312#2 24462312#3 1290456021#0 1290456021#1 1152808621#1 1152808621#2 1152808621#3 40784659#0 40784659#1"/>
    </vehicle>

    <vehicle id="veh003_1226" type="passenger" depart="61365.00" arrival="61786.00">
        <route edges="163764181#0 163764181#1 47096749 513087673 160265595 160265594#0 160265594#1-AddedOnRampEdge 160265594#1 1337115416-AddedOnRampEdge 1337115416 1337115416-AddedOffRampEdge 1337115415 870429030 1205403618 1205403620 769245723#0 769245723#1 1273405486 687003627#0 687003627#1 1068486060 1068879773 1235082254 1092108127"/>
    </vehicle>

    <vehicle id="veh003_3603" type="passenger" depart="61239.00" arrival="61788.00">
        <route edges="136014464#0 -39693566 39611498#0 39611498#2 1074542779 1074542778 1337174721#0 1337174721#1 1329415591 1068139740 177741555#0 177741555#1 987438287 177743542#0 177743542#1 177743542#2 177743542#3 -238492234#5 -238492234#4 -238492234#3 -238492234#2 -238492234#1 -238492234#0 238492234#0"/>
    </vehicle>

    <vehicle id="veh003_1896" type="passenger" depart="61274.00" arrival="61793.00">
        <route edges="238492234#0 238492234#1 238492234#2 238492234#3 238492234#4 238492234#5 39675267#1 39675267#2 177743535#0 -1080217655#2 -1080217655#1 -1080217655#0 -1080217657 -24462315#4 -24462315#3 -24462315#2 -24462315#1 -24462315#0 -987438288 987437456#0 987437456#1 987437456#2 987437456#3 1077974669#0 1077974669#1 1077974669#2 136752710 136752695#0 136752695#1 136752695#2 136752695#3 1074542798#0 -1080472036#0 -47281532#3 -47281532#2 -47281532#1 -47281532#0 1074542796#0 1074542796#1 1074542796#2 176026558#0 176026558#1 -39674883#1 -39674883#0 -1074542783 1119196426 1124326527 176688371 1124326526 -50592511 50843192 -41861750 -39658122#2 -39658122#1 -39658122#0 -1225879470#1 -1225879470#0 -1225879469"/>
    </vehicle>

    <vehicle id="veh003_3950" type="passenger" depart="61415.00" arrival="61814.00">
        <route edges="30620777 51177335#0 51177335#1 1322066956#0 1322066956#1 39659484#0 39659484#1 39659484#2 12103213#0 12103213#1 1085107695#0 1085107695#1 1085107695#2 -1068434254#1 -1068434254#0 -1124366648 83563432#0 83563432#1 428730793#0 428730793#1 460316444 1326094888 428730818#0 428730818#1 428730818#2 428730818#3 1421564739 428730807 1226645407 1226645410 1074771170 47087992#0 47087992#1 47087992#2 47087992#3 47087992#4 47087992#5 47087993#0 47087993#1 47087993#2 47087993#3 47087993#4 47087993#5 47087993#6 47087993#7 1005394020#0 1005394020#1 1005394020#2"/>
    </vehicle>

    <vehicle id="veh003_4954" type="passenger" depart="61338.00" arrival="61818.00">
        <route edges="1262057048#0 1262057048#1 1262057048#2 1262057040 1262057037 1262057038 1324096361 1324039615#0 1324039615#0-AddedOffRampEdge 1324039615#1 1324039615#2 1262057029 1213743239 1217052998 1217053006 1292578231 1217053007 1292578229 1256479008-AddedOnRampEdge 1256479008 1325293222 1332752598 1332752598-AddedOffRampEdge 1153936294 47281535 50775228 69156910#0-AddedOnRampEdge 69156910#0 69156910#1 1337174722#1 950267225#0 950267225#1 950267225#3 1329381034 986834726 -169000444 -39689392#2 -39689392#1 -39689392#0 39689392#0"/>
    </vehicle>

    <vehicle id="veh003_4385" type="passenger" depart="61709.00" arrival="61844.00">
        <route edges="143996571#1 143996575 -1101727292 -177768115 -1101727291 1068447136 136014469#0 136014469#1 136014464#0"/>
    </vehicle>

    <vehicle id="veh003_1768" type="passenger" depart="61543.00" arrival="61847.00">
        <route edges="71293415#1 71293415#2 48755521 71293436 449197600#0 449197600#1 1330568385#0 1330568385#1 1330568385#2 1068434241 1326094900 1076605837#0 1076605837#1 1365724641 139755214#3 240666074#0"/>
    </vehicle>

    <vehicle id="veh003_700" type="passenger" depart="61249.00" arrival="61848.00">
        <route edges="238492234#0 238492234#1 238492234#2 238492234#3 238492234#4 238492234#5 39675267#1 39675267#2 177743535#0 177743535#1 177743535#2 1080217652 1080217652-AddedOffRampEdge 982225960 1068139753#0 1068139753#1 1074542777#0 1074542777#1 1337174722#1 950267225#0 950267225#1 950267225#3 1329381034 986834726 53672154#0 53672154#1 35422924#4"/>
    </vehicle>

    <vehicle id="veh003_2705" type="passenger" depart="61331.00" arrival="61848.00">
        <route edges="-863774952#1 -863774952#0 -1068916333 -1322916760#3 -1322916760#2 -1322916760#1 -1322916760#0 -1068144845#4 -1068144845#3 -1068144845#2 -1068144845#1 -1332638368#1 -1332638368#0 -14924729#3 -14924729#2 -14924729#1 -14924729#0 -1332638391#2 -1332638391#1 -1332638391#0 -1068434202 -1214520079 -968332509 -1292541108 -509646052 1068916339 1254816455 10628444#0 10628444#1 10628444#2 1335304377 900279886 1335304385 1324405511 1335304375 1335304374 475044040#0 475044040#1 475044040#2 475044040#3 1272337501 1064476622#0"/>
    </vehicle>

    <vehicle id="veh003_4084" type="passenger" depart="61371.00" arrival="61854.00">
        <route edges="1005394020#2 40140141#4 40140141#5 240666072#1 240666072#2 240666072#3 -1332638368#1 -1332638368#0 47225638#0 47225638#1 47225638#2 47225638#3 47225638#4 1298335702 1337646276 1421367508 12090453#0 12090453#1 1421367925 488788636#0 488788636#1 413789557 488788633#0 488788633#1 488788633#2 1067928307#0 1067928307#1 1067928307#2 1067928307#3 -437445542 -437445540 -1068434253 -484298632 -1064799814 -1068434252 -1076615064#1 -1076615064#0 -1119079290 -40786653 1076615061 1076615062#0 -226855595#1"/>
    </vehicle>

    <vehicle id="veh003_586" type="passenger" depart="61221.00" arrival="61863.00">
        <route edges="1235145933 1119184633 1231048980 1119184634 1226074441 44477281#0 44477281#1 44477281#2 44477281#3 1064398314#0 1064398314#1 1064398314#2 1119184629 1064398313#0 1064398313#1 1064398313#2 1064398313#3 1064398313#4 1064398313#5 1064398313#6 1064398313#7 12088974#0 12088974#1 12088974#2 12088974#3 12088974#4 12088974#5 12088974#6 12088974#7-AddedOnRampEdge 12088974#7 1067953247#0 1067953247#1 1067953247#2 1067953247#3 47225638#0 47225638#1 47225638#2 47225638#3 47225638#4 1298335702 1337646276 1421367508 12090453#0 12090453#1 1421367925 488788636#0 488788636#1 413789557 47267014#0 47267014#1 1068890124#0 1068890124#1 1068890124#2 1068890123#0 1068890123#1 1068890122#0 1068890122#1 12103210 1231065638#0 1231065638#1 730932886#0 730932886#1 -1330117295#0 -1330117296 30620777"/>
    </vehicle>

    <vehicle id="veh003_350" type="passenger" depart="61356.00" arrival="61864.00">
        <route edges="49171011#1 -40113058#2 -40113058#1 -1298335701 -1091862750#3 -1091862750#2 -1091862750#1 -1091862750#0 -1075724581#4 -1075724581#3 -1075724581#2 -1075724581#1 -1075724581#0 -1075724565#2 -1075724565#1 -1075724565#0 -987437452#6 -987437452#5 -987437452#4 -987437452#3 -987437452#2 -987437452#1 -987437452#0 -1068139766#1 -1068139766#0 -1068139767 -177594558 -177594560 -24474697 -150943904#3 -150943904#2 -150943904#1 -150943904#0 -226657321#4 -226657321#3 35994116 -178493002#7 -449718779 449718776#0 449718776#1 449718771 449718773#0 449718773#1 449718773#2 1237953491#0 1237953491#1 1074771165#0 46975399#0 46975399#1 46975399#2 46975399#3 46975399#4 178583696#1 19997100 1327579141 15419971#0 15419971#1 15419971#2 1323097578 1292578228-AddedOnRampEdge 1292578228 1324405519 49224804#0 -40035904#2 -40035904#1"/>
    </vehicle>

    <vehicle id="veh003_2235" type="passenger" depart="61259.00" arrival="61865.00">
        <route edges="41862226#1 50590325#1 -175985052#0 -175985051 -40113058#3 -40113058#2 -40113058#1 -1298335701 -1091862750#3 -1091862750#2 -1091862750#1 -1091862750#0 -1075724581#4 -1075724581#3 -1075724581#2 -1075724581#1 -1075724581#0 -1075724565#2 -1075724565#1 -1075724565#0 -987437452#6 -987437452#5 -987437452#4 -987437452#3 -987437452#2 -987437452#1 -987437452#0 -1068139766#1 -1068139766#0 -1068139767 -177594558 -177594560 -24474697 -150943904#3 -150943904#2 -150943904#1 -150943904#0 -226657321#4 -226657321#3 35994116 -178493002#7 -449718779 449718776#0 449718776#1 449718771 449718773#0 449718773#1 449718773#2 1237953491#0 1237953491#1 1074771165#0 46975399#0 46975399#1 46975399#2 46975399#3 46975399#4 178583696#1 19997100 1327579141 15419971#0 15419971#1 15419971#2 1323097578 1292578228-AddedOnRampEdge 1292578228 1324405519 49224804#0 -40035904#2 -40035904#1"/>
    </vehicle>

    <vehicle id="veh003_2580" type="passenger" depart="61541.00" arrival="61873.00">
        <route edges="424580470#5 1085107694 1322939164 1068434248 1125829824 656327321#0 656327321#1 50832816#0 50832816#1 1327147190#0 1327147190#1 449197597#0 449197597#1 71293415#0 71293415#1 71293415#2 48755524#0 48755524#1 48755524#2 85796876#0 85796876#1"/>
    </vehicle>

    <vehicle id="veh003_3092" type="passenger" depart="61207.00" arrival="61877.00">
        <route edges="-40035904#1 40035606#4 40035606#5 40035606#7 1223689725#0 1223689725#1 1223689725#2 1085107696 1273405488 15419971#0 15419971#1 15419971#2 15419906#0 15419906#1 15419906#2 1323097579#0 1323097579#1 1323097579#2 11631594#0 11631594#1 11631594#2 11631594#3 1196008691#0 1196008691#1 178583153-AddedOnRampEdge 178583153 479210212 484295023 484295022 479210211 484295019 484295016 484295017 484295017-AddedOffRampEdge 1123874576 51296826#0 51296826#1 964451986 761409911 1232879431 40784645#0-AddedOnRampEdge 40784645#0 40784645#2 1192417709#0 1192417709#1 1192417709#2 1192417709#3 49233711#0 49233711#1 49233711#2 1192417716#0 164957790#1 164957790#2 164957790#3 40784659#1"/>
    </vehicle>

    <vehicle id="veh003_3912" type="passenger" depart="61280.00" arrival="61878.00">
        <route edges="47386145 47386124 1073926476 967979578 967979543 1231048979 1209980949 1064394214 1209980957 1209980953 1209980954 1329415581 1064394216 1233759506 1211488938 1209980967 1064394215 1064398320#0 1064398320#1 1068434233 1211488940 1231065650 68585251#0 68585251#1-AddedOnRampEdge 68585251#1 1211493170#0 1211493170#1 1207401653 654297639 1068943384 266066444 1322916762 654297638 1260481147 169562957#0 169562957#1 169562957#2 10738871#0"/>
    </vehicle>

    <vehicle id="veh003_4368" type="passenger" depart="61377.00" arrival="61894.00">
        <route edges="1005394020#2 1005394020#3 1005394019#0 1005394019#1 1005394019#2 1005394019#3 1005394019#4 1005394019#5 1005394019#6 1005394019#7 1005394019#8 1005394019#9 1005394019#10 1004669106 10683634#0 10683634#1 10683634#2 1272480696 1272480709#0 1272480709#1 -1119184688 -85711353#1 -85711353#0 421846083 14788300#0 14788300#1 14788300#2 14788300#3 438751959 1073705836#0 1073705836#1 1073705836#2 1073705836#3 1322939163 610738424#0 610738424#1 610738424#2 610738424#3 610738424#4 220773636 -220773635#1 -220773635#0 -220770272"/>
    </vehicle>

    <vehicle id="veh003_4729" type="passenger" depart="61222.00" arrival="61897.00">
        <route edges="163764181#0 163764181#1 1337115417 23746713 23746716#0 23746716#1 23746716#2-AddedOnRampEdge 23746716#2 1337115414 1337115414-AddedOffRampEdge 23746717 12262312 12262312-AddedOffRampEdge 958890765 813852686 160249467-AddedOnRampEdge 160249467 1327579150 813852684 958890771 958854352#1-AddedOnRampEdge 958854352#1 958854352#2 958854355 958852841"/>
    </vehicle>

    <vehicle id="veh003_4262" type="passenger" depart="61338.00" arrival="61897.00">
        <route edges="-50843173#3 -50843173#2 -50843173#1 1075505406#2 1075505406#3 1075505406#4 1075505404#0 1075505404#1 1092372223 1092372222 1092372221#0 1092372221#1 50843200#1 50843200#2 50843200#3 238478724#0 1074409236#1 51964857 813852691 1337777272 813852686 160249467-AddedOnRampEdge 160249467 1327579150 813852684 958890771 958854352#1-AddedOnRampEdge 958854352#1 958854352#2 958854355 958852841"/>
    </vehicle>

    <vehicle id="veh003_219" type="passenger" depart="61563.00" arrival="61897.00">
        <route edges="769245718 44031988 769245721 1077708636 654297624#0 654297624#1 1077708637 654409982 51177336 40322954 40322963 1332905213 51177332 39659506 1242851129 1241643111 1119387526#0 1119387526#1 1271083321 240640942#0 240640942#1 504456848#0 504456848#1 504456848#2 1255166902#0 1255166902#1 1255166902#1-AddedOffRampEdge 504456844"/>
    </vehicle>

    <vehicle id="veh003_3400" type="passenger" depart="61261.00" arrival="61901.00">
        <route edges="-1080217656#1 -1080217656#0 -24462315#4 -24462315#3 -24462315#2 -24462315#1 -24462315#0 -987438288 987437456#0 987437456#1 987437456#2 987437456#3 1077974669#0 1077974669#1 1077974669#2 136752710 136752695#0 136752695#1 136752695#2 136752695#3 1074542798#0 -1080472036#0 -47281532#3 -47281532#2 -47281532#1 -47281532#0 1074542796#0 1074542796#1 1074542796#2 176026558#0 176026558#1 -39674883#1 -39674883#0 50590322#0 50590322#1 1064757420 40140800 1390008593 1390008595 1322939167 1271040789 1092600138#0 1092600138#1 1119196421 -804161124 -804161125 -1091984804 -1091984805 -1125986404 -1271083327#5 -1271083327#4 -1271083327#3 -1271083327#2 -1271083327#1 -1271083327#0 -149160978#3 -149160978#2 -149160978#0 1271083321 240640942#0 240640942#1 504456848#0 504456848#1 504456848#2 1255166902#0 1255166902#1 1255166902#1-AddedOffRampEdge 504456844"/>
    </vehicle>

    <vehicle id="veh003_360" type="passenger" depart="61274.00" arrival="61907.00">
        <route edges="50843248 1329667756 1101656565 1091984801 1074409253#0 1074409253#1 1074409252#0 1074409252#1 1273251145 1235082257 1337115413-AddedOnRampEdge 1337115413 151369007 240640944 -131675496 -1273359358 1337115412 39659388#0 39659388#1 52205338 52205312 1205403616 1205403619 769245722#0 769245722#1 769245724 44472952 858173005#0 858173005#1 1330805309 44478904#0 44478904#1 779247856 779247855#0 779247855#1 779247855#2 779247855#3 779247855#5 1068486114#0 1068486114#1 1068486114#2 1068486114#3 686457553#0 -220755657#3 -220755657#2 50383097#5 50383097#6 50383097#7 50383097#8 50383097#9 -50383097#9"/>
    </vehicle>

    <vehicle id="veh003_3433" type="passenger" depart="61337.00" arrival="61908.00">