<?xml version="1.0" encoding="UTF-8"?>

<!-- generated on 2025-08-21 08:19:50 by Eclipse SUMO sumo Version 1.24.0
<sumoConfiguration xmlns:xsi="http://www.w3.org/2001/XMLSchema-instance" xsi:noNamespaceSchemaLocation="http://sumo.dlr.de/xsd/sumoConfiguration.xsd">

    <input>
        <net-file value="net/shanghai_5km.net.xml"/>
        <route-files value="scenarios/S002/routes.rou.xml"/>
        <additional-files value="scenarios/common.types.xml"/>
    </input>

    <output>
        <summary-output value="scenarios/S002/summary.xml"/>
        <tripinfo-output value="scenarios/S002/tripinfo.xml"/>
        <vehroute-output value="scenarios/S002/vehroute.xml"/>
        <save-state.times value="999999"/>
    </output>

    <processing>
        <route-steps value="0"/>
    </processing>

    <random_number>
        <seed value="1"/>
    </random_number>

</sumoConfiguration>
-->

<routes xmlns:xsi="http://www.w3.org/2001/XMLSchema-instance" xsi:noNamespaceSchemaLocation="http://sumo.dlr.de/xsd/routes_file.xsd">
    <vehicle id="veh002_2990" type="passenger" depart="28833.00" arrival="28912.00">
        <route edges="50843170 967135082#2 967135080#0 967135080#1 967135080#2 1092372218"/>
    </vehicle>

    <vehicle id="veh002_2045" type="passenger" depart="28867.00" arrival="28933.00">
        <route edges="-52205556 -52205557 -177688403 -504456842"/>
    </vehicle>

    <vehicle id="veh002_1064" type="passenger" depart="28893.00" arrival="28954.00">
        <route edges="-50323232#2 -50323232#1 -50323232#0 10629716#3 10629716#4 10629716#5 10629716#6 10629716#7 10629716#8 -422821291#8 -422821291#7 -422821291#6 -422821291#5 -39750994#7 -39750994#6 -39750994#5 -39750994#4"/>
    </vehicle>

    <vehicle id="veh002_2679" type="passenger" depart="28909.00" arrival="28991.00">
        <route edges="238492234#0 -238492234#0"/>
    </vehicle>

    <vehicle id="veh002_2057" type="passenger" depart="28935.00" arrival="29024.00">
        <route edges="504456844 504456843#0 -613164648 613164647#2 504456843#2 48557297#1 48557297#2-AddedOnRampEdge 48557297#2 1255099044 -52205556"/>
    </vehicle>

    <vehicle id="veh002_2174" type="passenger" depart="28897.00" arrival="29097.00">
        <route edges="169004589#0 169004589#1 169004589#2 1218767012#0 1218767012#1 1218767012#2 1218767012#3 159942186 1213743241 159942194#0 12618613#1 12618613#2 12618613#3 12618613#4 12618613#6 12618613#7 1262057043#1 1262057043#2"/>
    </vehicle>

    <vehicle id="veh002_935" type="passenger" depart="28859.00" arrival="29107.00">
        <route edges="240666074#0 50372096#0 50372096#1 50372096#2 50372096#3 -1076605835 -424580478 -1119079290 -40786653 -1076615063#2 -1076615063#1 -1076615063#0 1322939164 1068434248 1125829824 656327321#0 656327321#1 50832816#0 50832816#1 1327147190#0 1327147190#1 449197597#0 449197597#1 71293415#0 71293415#1"/>
    </vehicle>

    <vehicle id="veh002_3013" type="passenger" depart="29021.00" arrival="29120.00">
        <route edges="438516309#1 -1068916333 13866211#0 13866211#1 1118804248 1118804257 1068144844"/>
    </vehicle>

    <vehicle id="veh002_2941" type="passenger" depart="28930.00" arrival="29208.00">
        <route edges="-15676150#0 -47267008#6 50372107#0 50372107#1 50372107#2 50372107#3 50372107#4 12103213#1 1124366650 654297626#0 654297626#1 1068890123#1 1068890122#0 1068890122#1 12103210 1231065638#0 1231065638#1 50372114#0 50372114#1 50372114#2 12104894 -1324597581 -1124366653"/>
    </vehicle>

    <vehicle id="veh002_2797" type="passenger" depart="28997.00" arrival="29208.00">
        <route edges="-39750994#4 -39750994#3 -39750994#2 -39750994#1 39750994#1 39750994#2 39750994#3 39750994#4 116866250#0 116866250#1 116866250#2 116866250#3 116866250#4 39750944#7 1085107733#0 1085107733#1 1085107733#2 10629715#0 10629715#1 10629715#2 1298040488#0 1298040488#1 1223689727 1223689726 1223689725#0 1223689725#1 238219437#0 238219437#1 39697113#0 39697113#1 39697113#2 39697113#3"/>
    </vehicle>

    <vehicle id="veh002_1052" type="passenger" depart="28818.00" arrival="29209.00">
        <route edges="-52205556 -52205557 -177688403 -48557294 1125864850 1125864850-AddedOffRampEdge 1255166900 1068486118 686928344#0 686928344#1 1074542788 686928347#0 686928347#1 686928347#2 1205403621 131672876 52205445 52205301 1235082229 769245742 40322964 769245714 769245716#0 769245716#1 1255195544 1077697462#0 1077697462#1 1124366651 1125843932 51177335#0 51177335#1 174737568#0 174737568#1 1326094917#0 1326094917#1 174332810#0 174332810#1 174332810#2 -50371367#2 -50371367#1"/>
    </vehicle>

    <vehicle id="veh002_20" type="passenger" depart="29157.00" arrival="29229.00">
        <route edges="143996571#1 143996575 -1101727292 -177768115 -1101727291 869126015 -1068139751"/>
    </vehicle>

    <vehicle id="veh002_3595" type="passenger" depart="28873.00" arrival="29257.00">
        <route edges="50843248 1329667756 1101656565 1091984801 1074409253#0 1074409253#1 1074409252#0 1074409252#1 1273251145 1235082257 1337115413-AddedOnRampEdge 1337115413 151369007 240640944 -131675496 -1273359358 1337115412 39659388#0 39659388#1 52205338 52205312 1205403616 1205403620 769245723#0 769245723#1 1273405486 687003627#0 687003627#1 1068486060 1068879773 48557294 -504456842"/>
    </vehicle>

    <vehicle id="veh002_3512" type="passenger" depart="28858.00" arrival="29263.00">
        <route edges="163764181#0 163764181#1 47096749 513087673 160265595 160265594#0 160265594#1-AddedOnRampEdge 160265594#1 1337115416-AddedOnRampEdge 1337115416 1337115416-AddedOffRampEdge 1337115415 870429030 1205403618 1205403620 769245723#0 769245723#1 1273405486 687003627#0 687003627#1 687003626#0 687003626#1 52205555 1255099046 504456848#0 -52205556"/>
    </vehicle>

    <vehicle id="veh002_2375" type="passenger" depart="28801.00" arrival="29296.00">
        <route edges="-1068139751 1068447143 1068208203 49202200 1068139747 1325293221#0 1325293221#1 1325293221#2 69156910#0-AddedOnRampEdge 69156910#0 69156910#1 1337174721#0 1337174721#1 1329415591 1068139740 177741555#0 177741555#1 987438287 177743542#0 177743542#1 177743542#2 177743542#3 -238492234#5 -238492234#4 -238492234#3 -238492234#2 -238492234#1 -238492234#0 238492234#0"/>
    </vehicle>

    <vehicle id="veh002_2035" type="passenger" depart="28810.00" arrival="29297.00">
        <route edges="1235145933 967979543 1231048979 1209980949 1064394214 1209980957 1209980953 1209980954 1329415581 1064394216 1233759506 1211488938 1209980967 1064394215 1064398320#0 1064398320#1 1068434233 1211488940 1231065650 68585251#0 68585251#1-AddedOnRampEdge 68585251#1 1211493170#0 1211493170#1 1207401653 968332508 1068434223 1068434222#0 1068434222#1 1260481152#0 1260481152#1 40299122#0 40299122#1 40299122#2 40299122#3 40299122#4 40299122#5 40299122#6 40299122#7 40299122#8 9704194#5 9704194#6 9704194#7"/>
    </vehicle>

    <vehicle id="veh002_1089" type="passenger" depart="29213.00" arrival="29314.00">
        <route edges="-1225879469 -1225879468#1 -1225879468#0 41861750 -50843192 50592511 -1124326526 -176688371 -1124326527 -1119196426 1074542783 39674883#0 39674883#1"/>
    </vehicle>

    <vehicle id="veh002_409" type="passenger" depart="28828.00" arrival="29317.00">
        <route edges="39674883#1 -176026558#1 -176026558#0 -1074542796#2 -1074542796#1 -1074542796#0 -175985052#5 -175985052#4 -175985052#3 -175985052#2 -175985052#1 175971816#0 175971816#1 175971816#2 175971816#3 175978283 145007026 558885224#1 558885224#2 558885224#3 558885224#4 558885227 558885226#0 558885226#1 145007025#0 145007025#1 1255166884 145007015#0 145007015#2 177714722#4 177714722#6 168993860#3 1298335708 1298040489#0 1298040489#1 1101727304#0 1101727304#1 1101727304#2 177924165 136014464#0"/>
    </vehicle>

    <vehicle id="veh002_3590" type="passenger" depart="28938.00" arrival="29324.00">
        <route edges="-504456842 1235082253 1235082230 1125864850 1125864850-AddedOffRampEdge 1255166900 1068486118 686928344#0 686928344#1 1074542788 686928347#0 686928347#1 686928347#2 1205403621 131672876 52205445 52205301 1235082229 769245742 40322964 769245714 769245716#0 769245716#1 44031989 654409980#0 654409980#1 654409980#2 654409980#3 50832815 656327322 1085107744#0 1085107744#1 50832813#0 50832813#1 50832814#0 50832814#1 50832814#2-AddedOnRampEdge 50832814#2 769245718"/>
    </vehicle>

    <vehicle id="veh002_1172" type="passenger" depart="28844.00" arrival="29335.00">
        <route edges="169004589#0 169004589#1 169004589#2 1218767012#0 1218767012#1 1218767012#2 1218767012#3 159942186 1213743241 159942194#0 159942194#1 12080429#0 12080429#1 967998589 967998590 967998591 12620630#0 12620630#1 12620630#2 1262057025 1079896552 967998529 1217052997 1217053003 1217053001 1217052989 1262057020#0 1262057020#1 1262057033#0 1262057033#1 1262057033#2 1202688147#0 1202688147#1 1235501857#0 1235501857#0-AddedOffRampEdge 1235501857#1 1235501857#2 47283894 9704035 47283898 1235501858#0 1235501858#1 1235501858#2 1235501858#3 1235501858#4 1085107738 10629716#0 10629716#1 10629716#2 50323232#0 50323232#1 50323232#2 50323232#3 50323232#4 -449056344#2 -449056344#1 449056344#1 449056344#2 -50323232#4 -50323232#3 -50323232#2"/>
    </vehicle>

    <vehicle id="veh002_605" type="passenger" depart="29144.00" arrival="29340.00">
        <route edges="-50371367#1 -50371367#0 50372105#1 50372105#2 730932886#0 730932886#1 815637230 900390008 900390004 900390006#0 -240666074#2 -240666074#0 240666074#0"/>
    </vehicle>

    <vehicle id="veh002_3071" type="passenger" depart="29012.00" arrival="29341.00">
        <route edges="9704194#7 10724869 12088974#1 12088974#2 12088974#3 12088974#4 12088974#5 12088974#6 12088974#7-AddedOnRampEdge 12088974#7 1067953247#0 1067953247#1 1067953247#2 1067953247#3 1332638368#0 1332638368#1 1068144845#1 1068144845#2 1068144845#3 1068144845#4 1322916760#0 1322916760#1 1322916760#2 1322916760#3 1068916333 -438516309#1 -438516309#0 438516309#0 438516309#1"/>
    </vehicle>

    <vehicle id="veh002_2437" type="passenger" depart="28856.00" arrival="29343.00">
        <route edges="438516309#1 863774952#0 863774952#1 863774952#2 863774952#3 863774952#4 863774952#5 1074383313 1074383314 1068144850#0 1068144850#1 1068144850#2 1068144850#3 1064340571#0 1064340571#1 1064340571#2 1064340571#3 1064340571#4 1074771174 441792043#0 441792043#1 441792043#2 441792043#3 441792043#4 482569916 455842358 455842359#0 455842359#1 -377874582#2 -377874582#1 377874582#1 377874582#2 448934515 72142225#0 72142225#1 448934514#0 448934514#1 72509972#0 72509972#1 72509972#2 72509972#3 85796877#0 85796877#1 145391393#1 145391393#2 -47087489 -47087481 -1067852464#1 220775319 -220770272"/>
    </vehicle>

    <vehicle id="veh002_3687" type="passenger" depart="28946.00" arrival="29354.00">
        <route edges="12088962#10 12088962#11 12088962#12 12088962#13 13866211#0 13866211#1 1118804248 1118804257 -1068144849#2 -1068144849#1 -424580476 -13911027 -1074771172 -515142557 -515142555 -424580467#2 -424580467#1 -424580467#0 1068447148#0 1068447148#1 377874582#0 377874582#1 377874582#2 448934515 72142225#0 72142225#1 448934514#0 448934514#1 72509972#0 72509972#1 72509972#2 72509972#3 85796877#0 85796877#1 145391393#1 145391393#2 -47087489 -47087481 -1067852464#1 220775319 -220770272"/>
    </vehicle>

    <vehicle id="veh002_54" type="passenger" depart="28841.00" arrival="29367.00">
        <route edges="169004589#0 169004589#1 169004589#2 1218767012#0 1218767012#1 1218767012#2 1218767012#3 159942186 1213743241 159942194#0 159942194#1 12080429#0 12080429#1 967998589 967998590 967998591 12620630#0 12620630#1 12620630#2 1262057025 1079896552 967998529 1217052997 1217053003 1217053001 1217052989 1262057020#0 1262057020#1 1262057033#0 1262057033#1 1262057033#2 1202688147#0 1202688147#1 1235501857#0 1235501857#0-AddedOffRampEdge 1235501857#1 1235501857#2 47283894 9704035 47283898 1235501858#0 1235501858#1 1235501858#2 1235501858#3 1235501858#4 1085107738 10629716#0 10629716#1 10629716#2 10629716#3 10629716#4 10629716#5 10629716#6 10629716#7 10629716#8 -422821291#8 -422821291#7 -422821291#6 -422821291#5 -39750994#7 -39750994#6 -39750994#5 -39750994#4"/>
    </vehicle>

    <vehicle id="veh002_3498" type="passenger" depart="29131.00" arrival="29372.00">
        <route edges="446640439 1213514619 998773446#0-AddedOnRampEdge 998773446#0 998773446#1 998773446#2 1108528493 1388253650#0 1388253650#1 998773447#0 998773447#1 998773447#2 998773447#2-AddedOffRampEdge 1213514620 593755854"/>
    </vehicle>

    <vehicle id="veh002_896" type="passenger" depart="28996.00" arrival="29385.00">
        <route edges="504456844 504456843#0 -613164648 613164647#2 504456843#2 48557297#1 48557297#2-AddedOnRampEdge 48557297#2 1255099044 1255099047 504456840#0 504456840#1 1271083328 1119387517#0 1119387517#1 1242851131 1242851130#0 1242851130#1 1241643110 -39659506 51177341 12103170 1235082229 769245742 40322964 769245714 769245716#0 769245716#1 1255195544 1077697462#0 1077697462#1 1124366651 1125843932 51177335#0 51177335#1 730932886#0 730932886#1 815637230 900390008 900390004 900390006#0 900390006#1"/>
    </vehicle>

    <vehicle id="veh002_649" type="passenger" depart="29194.00" arrival="29390.00">
        <route edges="-39750994#4 -39750994#3 -39750994#2 -39750994#1 39750994#1 39750994#2 39750994#3 39750994#4 116866250#0 116866250#1 116866250#2 116866250#3 116866250#4 39750944#7 1085107733#0 1085107733#1 1085107733#2 10629715#0 10629715#1 10629715#2 1298040488#0 1298040488#1 1223689727 1223689726 1223689725#0 1223689725#1 238219437#0 238219437#1 39697113#0 39697113#1 39697113#2 39697113#3"/>
    </vehicle>

    <vehicle id="veh002_2010" type="passenger" depart="28940.00" arrival="29395.00">
        <route edges="238492234#0 238492234#1 238492234#2 238492234#3 238492234#4 238492234#5 39675267#1 39675267#2 177743535#0 177743535#1 177743535#2 1080217652 1080217652-AddedOffRampEdge 982225960 1068139753#0 1068139753#1 1074542777#0 1074542777#1 1074542776#0 1074542776#1 1074542776#1-AddedOffRampEdge 1325293229 177741559#0 177741559#1 -1327290528 -1327290524 -1068139751 136014469#0 136014469#1 136014464#0"/>
    </vehicle>

    <vehicle id="veh002_2075" type="passenger" depart="29291.00" arrival="29403.00">
        <route edges="39697113#3 39697113#4 39697113#5 39697113#6 -1223689724#1 -1223689724#0 1297720370 1223689722#0 1223689722#1 1085107737#0 1085107737#1 10629716#0 10629716#1 10629716#2 50323232#0 50323232#1 50323232#2 50323232#3 50323232#4 -449056344#2 -449056344#1 449056344#1 449056344#2 -50323232#4 -50323232#3 -50323232#2"/>
    </vehicle>

    <vehicle id="veh002_839" type="passenger" depart="28842.00" arrival="29406.00">
        <route edges="-1387302975 -1101656566#2 -1101656566#1 -1101656566#0 1329667756 1101656565 1091984801 1074409253#0 1074409253#1 1074409252#0 1074409252#1 1273251145 1074409236#0 1074409236#1 51964857 813852691 1337777272 813852686 160249467-AddedOnRampEdge 160249467 1327579150 813852684 958890771 958854352#1-AddedOnRampEdge 958854352#1 958854352#2 958854355 958852841"/>
    </vehicle>

    <vehicle id="veh002_843" type="passenger" depart="28876.00" arrival="29407.00">
        <route edges="-40035904#1 -40035606#3 -40035606#2 -40035606#1 -40035606#0 -39920593#3 40035325#0 40035325#1 40035325#2 490474063#8 15419875#0 15419875#1 39921192#0 39921192#1 488788626#0 488788626#1 488788626#2 488788626#3 488788626#4 178699054 1074409255#0 1074409255#1 1074409255#2 1074409255#3 1074409255#4 15670277#0 15670277#1 15670277#2 1074771169#0 1074771169#1 1074771169#2 1074771169#3 1074771169#4 1064340570 39960670#0 39960670#1 39960670#2 39959340 1064340569#0 1064340569#1 1064340569#2 39959351#0 39959351#1 39959351#2 666923272#0 666923272#1 666923272#2 666923272#3 666923272#4 1231065640 730932883 1414478165#0 1414478165#1 174332810#0 174332810#1 174332810#2 -50371367#2 -50371367#1"/>
    </vehicle>

    <vehicle id="veh002_1790" type="passenger" depart="28998.00" arrival="29419.00">
        <route edges="163764181#0 163764181#1 47096749 513087673 160265595 160265594#0 160265594#1-AddedOnRampEdge 160265594#1 1337115416-AddedOnRampEdge 1337115416 1337115416-AddedOffRampEdge 1337115415 870429030 1205403618 1205403620 769245723#0 769245723#1 1273405486 687003627#0 687003627#1 1068486060 1068879773 1235082254 1092108127"/>
    </vehicle>

    <vehicle id="veh002_3637" type="passenger" depart="28876.00" arrival="29430.00">
        <route edges="35422924#4 35422924#5 53672154#0 53672154#1 53672154#2 53672154#4 53672154#5 53672154#6 53672154#7 53672154#8 53672154#9 168993864 53672179 1067804363#0 1067804363#2 1067804363#3 1067804363#4 168993859#0 168993859#1 71523145#1 177574804 144965239 1068139765#0 1068139765#1 1068139765#2 1068139765#3 1068139737 49225334#0 49225334#2 47405752#0 47405752#1 47405752#2 47405752#3 47405752#4 39959318#0 39959318#1 39959318#2 39959318#3 39959351#0 39959351#1 39959351#2 666923272#0 666923272#1 666923272#2 666923272#3 666923272#4 1231065640 730932883 1414478165#0 1414478165#1 174737570#1 174737570#2 -1131985349 -173350535 -1125843937#1 -1125843937#0 -1124366652#1 -1124366652#0 -1324597581 -1124366653"/>
    </vehicle>

    <vehicle id="veh002_266" type="passenger" depart="29037.00" arrival="29456.00">
        <route edges="-504456842 1235082253 1068879769#0 1068879769#1 1068879769#2 1068879770 686928356#0 686928356#1 686928356#2 686928356#3 1131969258#0 1131969258#1 1131969258#2 44479010 51177339 656327325 149166333 779247852 779247851#0 779247851#1 779247851#2 131507550#0 131507550#1 131507550#2 131507550#3 -1092108188 -50832833#1 -50832833#0 -40247189 50832831 168579536#0 168579536#1 168579536#2 1064799817 1064799798 1322939164 1421564745 1330568384#0 1330568384#1 1421564744 1421564743 147435423 1421564742 1421564741 -50371377#1 -226854874"/>
    </vehicle>

    <vehicle id="veh002_1427" type="passenger" depart="28821.00" arrival="29457.00">
        <route edges="-863774952#1 -863774952#0 -1068916333 -1322916760#3 -1322916760#2 -1322916760#1 -1322916760#0 -1068144845#4 -1068144845#3 -1068144845#2 -1068144845#1 -1332638368#1 -1332638368#0 -14924729#3 -14924729#2 -14924729#1 -14924729#0 -1332638391#2 -1332638391#1 -1332638391#0 -1068434202 -1214520079 -968332509 -1292541108 -509646052 1068916339 1254816455 10628444#0 10628444#1 10628444#2 1335304377 900279886 1335304385 40297715#0 40297715#1 40297715#2 40297715#3 1235501863 1324405519 49224804#0 49224804#1 49224804#2 1123874585 1064398308 15417580#0 15417580#1 15417580#2 15417580#3 15417580#4 -238219437#3 -238219437#2 39697113#0 39697113#1 39697113#2 39697113#3"/>
    </vehicle>

    <vehicle id="veh002_1805" type="passenger" depart="29191.00" arrival="29461.00">
        <route edges="-40035904#1 40035606#4 40035606#5 40035606#7 1297720370 1223689722#0 1223689722#1 1085107737#0 1085107737#1 10629716#0 10629716#1 10629716#2 10629716#3 10629716#4 10629716#5 10629716#6 10629716#7 10629716#8 -422821291#8 -422821291#7 -422821291#6 -422821291#5 -39750994#7 -39750994#6 -39750994#5 -39750994#4"/>
    </vehicle>

    <vehicle id="veh002_3937" type="passenger" depart="28929.00" arrival="29464.00">
        <route edges="-50323232#2 -50323232#1 -50323232#0 10629716#3 10629716#4 10629716#5 10629716#6 10629716#7 10629716#8 39751079#1 39751079#2 39751079#3 39751079#4 39751079#5 39751079#6 39751079#7 39751079#8 39751079#9 39751079#10 39751079#11 1273251150#0 1273251150#1 1273251150#2 1272337498#0 1272337498#1 1064476620#0 1064476620#1 1064476620#2 1064476620#3 1260485932 1064476619 1297720369 1207401651#0 1207401651#1 1207401651#2 40299122#0 40299122#1 40299122#2 40299122#3 40299122#4 40299122#5 40299122#6 40299122#7 40299122#8 40299122#9 40299122#10 40299122#11 40299122#12 1067953247#0 1067953247#1"/>
    </vehicle>

    <vehicle id="veh002_12" type="passenger" depart="29203.00" arrival="29475.00">
        <route edges="769245718 44031988 769245721 1077697575 44031989 654409980#0 654409980#1 654409980#2 1064816192 1064816195 1064816191 1076605837#0 1076605837#1 1365724641 139755214#3 240666074#0"/>
    </vehicle>

    <vehicle id="veh002_509" type="passenger" depart="29069.00" arrival="29475.00">
        <route edges="163764181#0 163764181#1 47096749 513087673 160265595 160265594#0 160265594#1-AddedOnRampEdge 160265594#1 1337115416-AddedOnRampEdge 1337115416 1337115416-AddedOffRampEdge 1337115415 870429030 1205403618 1205403620 769245723#0 769245723#1 1273405486 687003627#0 687003627#1 687003626#0 687003626#1 52205555 1255099046 504456848#0 -52205556"/>
    </vehicle>

    <vehicle id="veh002_3454" type="passenger" depart="29279.00" arrival="29478.00">
        <route edges="-126724514#0 -126724529#1 -126724529#0 1091984825#7 1091984826#0 1091984826#1 1273251150#0 1273251150#1 -10749498 47088302#0 47088302#1 1064398309#0 1064398309#1 1064476622#0"/>
    </vehicle>

    <vehicle id="veh002_3826" type="passenger" depart="29242.00" arrival="29490.00">
        <route edges="1092372218 68586512 1214520056#0 1214520056#1 1202332870 1271083322 1214520053 1119387529#0 1119387529#1 1119387529#2 1119387526#0 1119387526#1 1271083321 240640942#0 240640942#1 504456848#0 -52205556"/>
    </vehicle>

    <vehicle id="veh002_1639" type="passenger" depart="28899.00" arrival="29494.00">
        <route edges="-176637359#2 -176637359#1 24474354#4 24474354#5 987437456#0 987437456#1 987437456#2 987437456#3 1077974669#0 1077974669#1 1077974669#2 136752710 136752695#0 136752695#1 136752695#2 136752695#3 1074542798#0 -1080472036#0 -47281532#3 -47281532#2 -47281532#1 -47281532#0 1074542796#0 1074542796#1 1074542796#2 176026558#0 176026558#1 -39674883#1 -39674883#0 50590322#0 50590322#1 1064757420 40140800 1390008593 1390008595 1322939167 1271040789 1092600138#0 1092600138#1 1119196421 -804161124 -804161125 -1091984804 -1091984805 -1125986404 -1271083327#5 -1271083327#4 -1271083327#3 -1271083327#2 -1271083327#1 -1271083327#0 -149160978#3 -149160978#2 -149160978#0 1271083321 240640942#0 240640942#1 504456848#0 504456848#1 504456848#2 1255166902#0 1255166902#1 1255166902#1-AddedOffRampEdge 504456844"/>
    </vehicle>

    <vehicle id="veh002_293" type="passenger" depart="29115.00" arrival="29497.00">
        <route edges="85796876#1 610738424#0 610738424#1 610738424#2 610738424#3 610738424#4 610738424#5 686283609#0 686283609#1 686283609#2 686283609#3 48755521 71293436 449197600#0 449197600#1 1330568385#0 1330568385#1 1330568385#2 1068434241 1326094900 1085107744#0 1064816190 1064816194"/>
    </vehicle>

    <vehicle id="veh002_431" type="passenger" depart="28888.00" arrival="29499.00">
        <route edges="238492234#0 238492234#1 238492234#2 238492234#3 238492234#4 238492234#5 39675267#1 39675267#2 177743535#0 177743535#1 177743535#2 1080217652 1080217652-AddedOffRampEdge 982225960 1068139753#0 1068139753#1 1074542777#0 1074542777#1 1074542776#0 1074542776#1 1074542776#1-AddedOffRampEdge 50775229 477993576 477993575 10632119 47281536 1325293228-AddedOnRampEdge 1325293228 1332752598 1332752598-AddedOffRampEdge 24462312#0 24462312#1 24462312#2 24462312#3 1290456021#0 1290456021#1 178444039#1 178444039#2 178444039#3 178444039#4 178444039#5 178444039#6 1271499755 47322403 457547879#3 457547879#4"/>
    </vehicle>

    <vehicle id="veh002_3262" type="passenger" depart="28930.00" arrival="29499.00">
        <route edges="47386145 47386124 967979576 1226074441 44477281#0 44477281#1 44477281#2 44477281#3 1064398314#0 1064398314#1 1064398314#2 1119184629 1064398313#0 1064398313#1 1064398313#2 1064398313#3 1064398313#4 1064398313#5 1064398313#6 1064398313#7 12088974#0 12088974#1 12088974#2 12088974#3 12088974#4 12088974#5 12088974#6 12088974#7-AddedOnRampEdge 12088974#7 1067953247#0 -12090415 -679060031 679060031"/>
    </vehicle>

    <vehicle id="veh002_2771" type="passenger" depart="28996.00" arrival="29503.00">
        <route edges="1064816194 1064816193 50832814#1 50832814#2-AddedOnRampEdge 50832814#2 769245718 1077697462#0 1077697462#1 1124366651 1125843932 51177335#0 51177335#1 1322066956#0 1322066956#1 39659484#0 39659484#1 39659484#2 12103213#0 12103213#1 1085107695#0 1085107695#1 1085107695#2 -1068434254#1 -1068434254#0 -1124366648 83563432#0 83563432#1 428730793#0 428730793#1 460316444 1326094888 428730818#0 428730818#1 428730818#2 428730818#3 1421564739 428730807 1226645407 1226645410 1074771170 47087992#0 47087992#1 47087992#2 47087992#3 47087992#4 47087992#5 47087993#0 47087993#1 47087993#2 47087993#3 47087993#4 47087993#5 47087993#6 47087993#7 1005394020#0 1005394020#1 1005394020#2"/>
    </vehicle>

    <vehicle id="veh002_3441" type="passenger" depart="28856.00" arrival="29507.00">
        <route edges="-40035904#1 -40035606#3 -40035606#2 -40035606#1 -40035606#0 -39920593#3 40035325#0 40035325#1 40035325#2 490474063#8 15419875#0 15419875#1 39921192#0 39921192#1 488788626#0 488788626#1 488788626#2 488788626#3 488788626#4 178699054 1074409255#0 1074409255#1 1074409255#2 1074409255#3 1074409255#4 15670277#0 15670277#1 15670277#2 483897831#0 483897831#1 1064853445 564273559#0 564273559#1 131671623#0 131671623#1 131671623#2 131671623#3 131671623#4 131671623#5 131671623#6 564273553#0 564273553#1 564273553#2 564273553#3 564273553#4 1214520068 12247569 1211151638 1211151635#0 1211151635#1 450616334#0 450616334#1 488788633#0 488788633#1 488788633#2 1067928307#0 1067928307#1 1067928307#2 1067928307#3 -437445542 -437445540 -1068434253 -484298632 -1064799814 -1068434252 -1076615064#1 -1076615064#0 -1324706272 -50371377#1 -226854874"/>
    </vehicle>

    <vehicle id="veh002_573" type="passenger" depart="29102.00" arrival="29525.00">
        <route edges="163764181#0 163764181#1 47096749 513087673 160265595 160265594#0 160265594#1-AddedOnRampEdge 160265594#1 1337115416-AddedOnRampEdge 1337115416 1337115416-AddedOffRampEdge 1337115415 870429030 1205403618 1205403620 769245723#0 769245723#1 1273405486 687003627#0 687003627#1 1068486060 1068879773 1235082254 1092108127"/>
    </vehicle>

    <vehicle id="veh002_21" type="passenger" depart="28919.00" arrival="29538.00">
        <route edges="-226854874 226854875#3 1421564742 1421564741 1324706271 1421564740 -139755195 1064816197#0 1064816197#1 1064816197#2 900390007 900390003 1330117294 900390009#0 900390009#1 174737568#0 174737568#1 1326094917#0 1326094917#1 240666066#0 240666066#1 1414478166 1004587407#0 40322445#0 40322445#1 40322445#2 1273359371 813852688 813852688-AddedOffRampEdge 1337777290 813852690#0 813852690#1 51964855-AddedOnRampEdge 51964855 686928337#0 686928337#1 686928337#2 1074409234#0 1074409234#1 1074409234#2 1092372228#0 1092372228#1 1092372228#2 1323097555 136232030#0 136232030#1 1329667750 1329667751 151369004 1074542785 136232049 136232043#0 136232043#1 1124326523 39674883#0 39674883#1"/>
    </vehicle>

    <vehicle id="veh002_1660" type="passenger" depart="29020.00" arrival="29546.00">
        <route edges="169004589#0 169004589#1 169004589#2 1218767012#0 1218767012#1 1218767012#2 1218767012#3 159942186 1213743241 159942194#0 159942194#1 12080429#0 12080429#1 967998589 967998590 967998591 12620630#0 12620630#1 12620630#2 1262057025 1079896552 967998529 1217052997 1217053003 1217053001 1217052989 1262057020#0 1262057020#1 1262057033#0 1262057033#1 1262057033#2 1202688147#0 1202688147#1 1235501857#0 1235501857#0-AddedOffRampEdge 1235501857#1 1235501857#2 47283894 9704035 47283898 1235501858#0 1235501858#1 1235501858#2 1235501858#3 1235501858#4 1085107738 10629716#0 10629716#1 10629716#2 10629716#3 10629716#4 10629716#5 10629716#6 10629716#7 10629716#8 -422821291#8 -422821291#7 -422821291#6 -422821291#5 -39750994#7 -39750994#6 -39750994#5 -39750994#4"/>
    </vehicle>

    <vehicle id="veh002_1890" type="passenger" depart="28920.00" arrival="29551.00">
        <route edges="438516309#1 863774952#0 863774952#1 863774952#2 863774952#3 863774952#4 863774952#5 1074383313 1074383314 1068144850#0 1068144850#1 1068144850#2 1068144850#3 1064340571#0 1064340571#1 1064340571#2 1064340571#3 1064340571#4 1074771174 441792043#0 441792043#1 441792043#2 441792043#3 441792043#4 482569916 455842358 455842359#0 455842359#1 -377874582#2 -377874582#1 377874582#1 377874582#2 448934515 72142225#0 72142225#1 448934514#0 448934514#1 72509972#0 72509972#1 72509972#2 72509972#3 85796877#0 85796877#1 29281550 1117800970 492982480#0 492982480#1 1270942529 1073926491 71293415#0 71293415#1"/>
    </vehicle>

    <vehicle id="veh002_3377" type="passenger" depart="28852.00" arrival="29561.00">
        <route edges="-220770272 1073926490#1 1067852464#0 1067852464#1 47087481 47087489 72142232 145391392#1 85796879#0 85796879#1 85796879#2 85796879#3 439015791 448934519 10683639 448934516#1 1074722383 515136606#0 515136606#1 515227367#0 515227367#1 515227367#2 482569917#0 482569917#1 482569917#2 515136604 47087992#0 47087992#1 47087992#2 47087992#3 47087992#4 47087992#5 47087993#0 47087993#1 47087993#2 47087993#3 47087993#4 47087993#5 47087993#6 47087993#7 -1068144845#4 -1068144845#3 -1068144845#2 -1068144845#1 -1332638368#1 -1332638368#0 47225638#0"/>
    </vehicle>

    <vehicle id="veh002_2162" type="passenger" depart="28895.00" arrival="29571.00">
        <route edges="50843248 1329667756 1101656565 1091984801 1074409253#0 1074409253#1 1074409233#0 1074409233#1 1091862743#0 1091862743#1 49228828 49228665 50323382#0 50323382#1 50323382#2 50323382#3 50323382#4 50323382#6 50323382#7 50323382#8 47157276 1064340565#0 1064340565#1 -85796878 -85796873 -1247547933#1 -1247547933#0 -450616345#2 -450616345#1 1125986380 1125986388 1068434195 1068434196#0 1068434196#0-AddedOffRampEdge 1068434196#1 1211151639 521704036 1068434168 1068434199 1068434200#0 1068434200#1 521704042#0 1125986387 1214520075 509524270 40322293 1214520070 509646061 509646062 509646057#0 509646057#1 509646057#2 1332638391#0 1332638391#1 1332638391#2 14924729#0 14924729#1 14924729#2 14924729#3 47225638#0"/>
    </vehicle>

    <vehicle id="veh002_1754" type="passenger" depart="28821.00" arrival="29580.00">