<?xml version="1.0" encoding="UTF-8"?>

<!-- generated on 2025-11-29 15:48:08 by Eclipse SUMO sumo Version 1.24.0
<sumoConfiguration xmlns:xsi="http://www.w3.org/2001/XMLSchema-instance" xsi:noNamespaceSchemaLocation="http://sumo.dlr.de/xsd/sumoConfiguration.xsd">

    <input>
        <net-file value="../../net/shanghai_5km.net.xml"/>
        <route-files value="routes.rou.alt.xml"/>
        <additional-files value="../../scenarios/common.types.xml,edgedump.add.xml"/>
    </input>

    <output>
        <summary-output value="summary.xml"/>
        <tripinfo-output value="tripinfo.xml"/>
        <vehroute-output value="vehroute.xml"/>
        <edgedata-output value="edgedata.xml"/>
        <statistic-output value="statistics.xml"/>
    </output>

    <processing>
        <route-steps value="0"/>
    </processing>

    <report>
        <log value="sumo.runlog"/>
        <duration-log.statistics value="true"/>
        <no-step-log value="true"/>
    </report>

</sumoConfiguration>
-->

<routes xmlns:xsi="http://www.w3.org/2001/XMLSchema-instance" xsi:noNamespaceSchemaLocation="http://sumo.dlr.de/xsd/routes_file.xsd">
    <vehicle id="veh001_727" type="passenger" depart="25218.00" arrival="25309.00">
        <route edges="504456844 48557053 149167969 504456841#0 504456841#1 504456841#2 504456841#3 1235082253 1092108127"/>
    </vehicle>

    <vehicle id="veh001_97" type="passenger" depart="25257.00" arrival="25361.00">
        <route edges="504456844 48557053 149167969 504456841#0 504456841#1 504456841#2 504456841#3 1235082253 1092108127"/>
    </vehicle>

    <vehicle id="veh001_362" type="passenger" depart="25247.00" arrival="25400.00">
        <route edges="1092372218 68586512 1214520056#0 1214520056#1 1202332870 1271083322 1214520053 1119387529#0 1119387529#1 1119387529#2 1119387526#0 1119387526#1 1271083321 240640942#0 240640942#1 504456848#0 -52205556"/>
    </vehicle>

    <vehicle id="veh001_631" type="passenger" depart="25306.00" arrival="25403.00">
        <route edges="1092372218 68586512 -1214520057 1214520058 1131988441 967135082#0 967135082#1 967135082#2 1225879472#0 1225879472#1 39658122#0"/>
    </vehicle>

    <vehicle id="veh001_131" type="passenger" depart="25363.00" arrival="25424.00">
        <route edges="-39658122#4 -39658122#3 41861750 -50843192 50592511 -1124326526 -176688371 -1124326527 -1119196426 1074542783 39674883#0 39674883#1"/>
    </vehicle>

    <vehicle id="veh001_152" type="passenger" depart="25262.00" arrival="25438.00">
        <route edges="1005394020#2 1005394020#3 1063471490#0 1063471490#1 1063471490#2 1207401650#0 1207401650#1 1119184639#0 1119184639#1 1119184639#2 12088974#5 12088974#6 12088974#7-AddedOnRampEdge 12088974#7 1067953247#0 1067953247#1"/>
    </vehicle>

    <vehicle id="veh001_1694" type="passenger" depart="25241.00" arrival="25474.00">
        <route edges="238492234#0 238492234#1 238492234#2 238492234#3 238492234#4 238492234#5 39675267#1 39675267#2 177743535#0 177743535#1 177743535#2 1080217652 1080217652-AddedOffRampEdge 982225960 1068139753#0 1068139753#1 1074542777#0 1074542777#1 1074542776#0 1074542776#1 1074542776#1-AddedOffRampEdge 1325293229 177741559#0 177741559#1 -1327290528 -1327290524 -1068139751 136014469#0 136014469#1 136014464#0"/>
    </vehicle>

    <vehicle id="veh001_1527" type="passenger" depart="25218.00" arrival="25476.00">
        <route edges="-15676150#0 -47267008#6 50372107#0 50372107#1 50372107#2 50372107#3 50372107#4 12103213#1 1085107695#0 1085107695#1 1085107695#2 -1068434254#1 -1068434254#0 -1124366648 -1273359394 -449197596#3 -449197596#2 -449197596#1 -449197596#0 85796872 492977130#0 492977130#1 492977130#2 492977130#3 492977130#4 85796877#0 85796877#1 145391393#1 145391393#2 -47087489 -47087481 -1067852464#1 220775319 -220770272"/>
    </vehicle>

    <vehicle id="veh001_2852" type="passenger" depart="25244.00" arrival="25482.00">
        <route edges="-1080217656#1 -1080217656#0 -24462315#4 -24462315#3 -24462315#2 -24462315#1 -24462315#0 -987438288 987437456#0 987437456#1 987437456#2 987437456#3 1077974669#0 1077974669#1 1077974669#2 136752710 136752695#0 136752695#1 136752695#2 136752695#3 1074542798#0 -1080472036#0 -47281532#3 -47281532#2 -47281532#1 -47281532#0 1074542796#0 1074542796#1 1074542796#2 176026558#0 176026558#1 -39674883#1 39674883#1"/>
    </vehicle>

    <vehicle id="veh001_2523" type="passenger" depart="25270.00" arrival="25496.00">
        <route edges="1064816194 1064816193 50832814#1 50832814#2-AddedOnRampEdge 50832814#2 769245718 1077697462#0 1077697462#1 1124366651 1125843932 51177335#0 51177335#1 1322066956#0 1322066956#1 39659484#0 39659484#1 39659484#2 12103213#0 12103213#1 1124366650 654297626#0 654297626#1 1068890123#1 1068890122#0 50372110#0 50372110#1 15676150#0 15676150#1 -15676150#1 -15676150#0"/>
    </vehicle>

    <vehicle id="veh001_450" type="passenger" depart="25265.00" arrival="25556.00">
        <route edges="1064816194 1064816193 50832814#1 50832814#2-AddedOnRampEdge 50832814#2 769245718 1077697462#0 1077697462#1 1124366651 1125843932 51177335#0 51177335#1 1322066956#0 1322066956#1 39659484#0 39659484#1 39659484#2 12103213#0 12103213#1 1085107695#0 1085107695#1 1085107695#2 -1068434254#1 -1068434254#0 -1124366648 83563432#0 83563432#1 428730793#0 428730793#1 460316444 1326094888 428730818#0 428730818#1 428730818#2 428730818#3 1421564739 428730807 1226645407 1226645410 1074771170 47087992#0 47087992#1 47087992#2 47087992#3 47087992#4 47087992#5 47087993#0 47087993#1 47087993#2 47087993#3 47087993#4 47087993#5 47087993#6 47087993#7 1005394020#0 1005394020#1 1005394020#2"/>
    </vehicle>

    <vehicle id="veh001_2425" type="passenger" depart="25223.00" arrival="25583.00">
        <route edges="1067953247#1 1067953247#2 1067953247#3 47225638#0 47225638#1 47225638#2 47225638#3 47225638#4 1298335702 1337646276 1421367508 12090453#0 12090453#1 1421367925 488788636#0 488788636#1 413789557 47267014#0 47267014#1 1068890124#0 1068890124#1 1068890124#2 1068890123#0 1068890123#1 1068890122#0 1068890122#1 12103210 1231065638#0 1231065638#1 730932886#0 730932886#1 815637230 900390008 900390004 900390006#0 -240666074#2 -240666074#0 240666074#0"/>
    </vehicle>

    <vehicle id="veh001_708" type="passenger" depart="25231.00" arrival="25587.00">
        <route edges="40784659#1 40784659#2 40784659#3 40784659#4 1152808620#1 1152808620#2 135838725#0 135838725#1 135838725#2 10632128 666886087#0 666886087#1 666886087#2 666886087#4 1255166892 166332795#0 166332795#1 1298040494-AddedOnRampEdge 1298040494 49219226 49219226-AddedOffRampEdge 1298040493 145007023 1255166890 176150324#0 176150324#1 176150325 558885222#0 558885222#1 558885222#2 558885222#3 -145007026 -175978283 -175971816#3 -175971816#2 -175971816#1 -175971816#0 -50590325#1 -41862226#1 41862226#1"/>
    </vehicle>

    <vehicle id="veh001_343" type="passenger" depart="25378.00" arrival="25588.00">
        <route edges="240666074#0 50372096#0 50372096#1 50372096#2 50372096#3 -1076605835 -424580478 -1119079290 -40786653 -1076615063#2 -1076615063#1 -1076615063#0 1322939164 1068434248 1125829824 656327321#0 656327321#1 50832816#0 50832816#1 1327147190#0 1327147190#1 449197597#0 449197597#1 71293415#0 71293415#1"/>
    </vehicle>

    <vehicle id="veh001_1793" type="passenger" depart="25289.00" arrival="25590.00">
        <route edges="-226855595#1 -226855595#0 50372096#3 -1076605835 -424580478 -1119079290 -40786653 -1076615063#2 -1076615063#1 -1076615063#0 1322939164 1068434248 1125829824 656327321#0 656327321#1 50832816#0 50832816#1 1327147190#0 1327147190#1 449197597#0 449197597#1 71293415#0 71293415#1 71293415#2 48755524#0 48755524#1 48755524#2 85796876#0 85796876#1"/>
    </vehicle>

    <vehicle id="veh001_2287" type="passenger" depart="25236.00" arrival="25610.00">
        <route edges="40784659#1 40784659#2 40784659#3 40784659#4 1152808620#1 1152808620#2 135838725#0 135838725#1 135838725#2 10632128 666886087#0 666886087#1 666886087#2 666886087#4 1255166892 166332795#0 166332795#1 1298040494-AddedOnRampEdge 1298040494 49219226 49219226-AddedOffRampEdge 145007021 49219227 145007018 1298040491 1298040492#0 1298040492#1 1064799809 -986834725 -169000444 1101727304#0 1101727304#1 1101727304#2 177924165 177719682 1068208203 869126015 -1068139751"/>
    </vehicle>

    <vehicle id="veh001_242" type="passenger" depart="25472.00" arrival="25644.00">
        <route edges="40040179#12 -494389154#1 -494389154#0 33683398#2 33683398#3 39750944#0 39750944#1 39750944#2 39750944#3 39750944#4 39750944#5 39750944#6 39750944#7 1085107733#0 1085107733#1 1085107733#2 10629716#0 10629716#1 10629716#2 50323232#0 50323232#1 50323232#2 50323232#3 50323232#4 -449056344#2 -449056344#1 449056344#1 449056344#2 -50323232#4 -50323232#3 -50323232#2"/>
    </vehicle>

    <vehicle id="veh001_2794" type="passenger" depart="25284.00" arrival="25668.00">
        <route edges="163764181#0 163764181#1 1337115417 23746713 23746716#0 23746716#1 23746716#2-AddedOnRampEdge 23746716#2 1337115414 1337115414-AddedOffRampEdge 549160331 549160332 549160330 1337115413-AddedOnRampEdge 1337115413 1131988451#0 1131988451#1 1273251148 1074409234#0 1074409234#1 1074409234#2 1092372228#0 1092372228#1 1092372228#2 1323097555 136232030#0 136232030#1 1329667750 1329667751 151369004 151369006 1004820609#1 49171011#0 49171011#1"/>
    </vehicle>

    <vehicle id="veh001_2468" type="passenger" depart="25417.00" arrival="25677.00">
        <route edges="1016015052 1092107995#0 1092107995#1 39827761#0 39827761#1 1131969258#0 1131969258#1 1131969258#2 44479010 51177339 656327325 149166333 779247852 779247851#0 779247851#1 779247851#2 131507550#0 131507550#1 131507550#2 131507550#3 -1092108188 -50832833#1 -50832833#0 -40247189 50832831 168579536#0 168579536#1 168579536#2 1064799817 1064799798 1326094900 1085107744#0 1085107744#1 50832813#0 50832813#1 50832814#0 50832814#1 50832814#2-AddedOnRampEdge 50832814#2 769245718"/>
    </vehicle>

    <vehicle id="veh001_2111" type="passenger" depart="25444.00" arrival="25688.00">
        <route edges="49228821#1 1332905214#0 1332905214#1 1332905214#2 1273359361 1074409233#0 1074409233#1 1091862743#0 1091862743#1 49228828 49228665 1329667735#0 1329667735#1 1077697576#0 1077697576#1 49228634 44031964#1 51964854#3 813852670#1 -226907339#1 -226907339#0 -50371367#2 -50371367#1"/>
    </vehicle>

    <vehicle id="veh001_2491" type="passenger" depart="25365.00" arrival="25700.00">
        <route edges="169004589#0 169004589#1 169004589#2 1218767012#0 1218767012#1 1218767012#2 1218767012#3 159942186 1213743241 159942194#0 159942194#1 12080429#0 12080429#1 967998589 12080417 47281527 47281525 1256479008-AddedOnRampEdge 1256479008 1325293222 1332752598 1332752598-AddedOffRampEdge 1153936294 47281535 50775228 69156910#0-AddedOnRampEdge 69156910#0 1074542776#1 1074542776#1-AddedOffRampEdge 1325293229 177741559#0 177741559#1 -1327290528 -1327290524 -1068139751 136014469#0 136014469#1 136014464#0"/>
    </vehicle>

    <vehicle id="veh001_1413" type="passenger" depart="25264.00" arrival="25702.00">
        <route edges="-1068139751 136014469#0 136014469#1 136014464#0 -1101727304#2 -1101727304#1 -1101727304#0 -1298040489#1 -1298040489#0 -1298335708 -168993860#3 -168993860#2 -168993860#1 -168993860#0 -1068447144#2 -1068447144#1 -1068447144#0 -39689165 -168993862 -475437749#3 -475437749#2 -475437749#1 -475437749#0 -1067804361 -177574794#1 -177574794#0 -177574806#0 71523145#1 177574804 144965239 1068139765#0 1068139765#1 1068139765#2 1068139765#3 1068139737 49225334#0 49225334#2 47405752#0 47405752#1 47405752#2 47405752#3 47405752#4 39959318#0 39959318#1 39959318#2 39959318#3 39959351#0 39959351#1 39959351#2 666923272#0 666923272#1 666923272#2 666923272#3 666923272#4 1231065640 730932883 1414478165#0 1414478165#1 174332810#0 174332810#1 174332810#2 -50371367#2 -50371367#1"/>
    </vehicle>

    <vehicle id="veh001_2292" type="passenger" depart="25256.00" arrival="25715.00">
        <route edges="240666074#0 240666074#2 1064816197#2 900390007 900390003 1330117294 900390009#0 900390009#1 174737568#0 174737568#1 1326094917#0 1326094917#1 240666066#0 240666066#1 1414478166 1004587407#0 40322445#0 40322445#1 40322445#2 1273359371 813852688 813852688-AddedOffRampEdge 1337777290 813852690#0 813852690#1 51964855-AddedOnRampEdge 51964855 686928337#0 686928337#1 686928337#2 1074409234#0 1074409234#1 1074409234#2 1092372228#0 1092372228#1 1092372228#2 1323097555 136232030#0 50843168#0 50843168#1 -1387302975"/>
    </vehicle>

    <vehicle id="veh001_1634" type="passenger" depart="25545.00" arrival="25724.00">
        <route edges="30620777 50372114#2 1124366639#0 1124366639#1 1124366639#2 769245721 1077697575 44031989 654409980#0 654409980#1 654409980#2 654409980#3 50832815 656327322 1085107744#0 1064816190 1064816194"/>
    </vehicle>

    <vehicle id="veh001_1504" type="passenger" depart="25600.00" arrival="25732.00">
        <route edges="-504456842 -504456841#3 -504456841#2 -504456841#1 613164644#0 613164644#1 613164649 -52205559#0 -52205558 -1255099045 1255166902#0 1255166902#1 1255166902#1-AddedOffRampEdge 504456844"/>
    </vehicle>

    <vehicle id="veh001_2719" type="passenger" depart="25228.00" arrival="25736.00">
        <route edges="1262057048#0 1262057048#1 1262057048#2 1262057040 1262057037 1262057038 1324096361 1324039615#0 1324039615#0-AddedOffRampEdge 1324039615#1 1324039615#2 1262057029 1213743239 1217052998 1217053006 1292578231 1217053007 1292578229 1256479008-AddedOnRampEdge 1256479008 1325293222 1332752598 1332752598-AddedOffRampEdge 1153936294 47281535 50775228 69156910#0-AddedOnRampEdge 69156910#0 69156910#1 1337174721#0 1337174721#1 1329415591 1068139740 177741555#0 177741555#1 -1080217655#2 -1080217655#1 -1080217655#0 -1080217657 -24462315#4 -24462315#3 -24462315#2 -24462315#1 -24462315#0 1092600147#0 1092600147#1 176637359#1 176637359#2 -176637359#2"/>
    </vehicle>

    <vehicle id="veh001_206" type="passenger" depart="25336.00" arrival="25738.00">
        <route edges="50843248 1329667756 1101656565 1091984801 1074409253#0 1074409253#1 1074409233#0 1074409233#1 1091862743#0 1091862743#1 49228828 49228665 1329667735#0 1329667735#1 1077697576#0 1077697576#1 49228634 44031964#1 51964854#3 730932883 1414478165#0 1414478165#1 240666065#1 240666065#2 240666065#3 730932886#0 730932886#1 815637230 900390008 900390004 900390006#0 -240666074#2 -240666074#0 240666074#0"/>
    </vehicle>

    <vehicle id="veh001_2167" type="passenger" depart="25592.00" arrival="25752.00">
        <route edges="679060031 9704194#4 40299122#9 40299122#10 40299122#11 40299122#12 1329667766 1067953248 1322916763#0 1322916763#1 1322916763#2 1005394019#0"/>
    </vehicle>

    <vehicle id="veh001_1248" type="passenger" depart="25621.00" arrival="25757.00">
        <route edges="-39658122#4 39658122#4 39658122#5 39658122#6 151369004 151369006 1004820609#1 49171011#0 49171011#1"/>
    </vehicle>

    <vehicle id="veh001_496" type="passenger" depart="25573.00" arrival="25774.00">
        <route edges="47225638#0 47225638#1 47225638#2 47225638#3 47225638#4 1298335702 1337646276 1421367508 12090453#0 12090453#1 1421367925 488788636#0 488788636#1 413789557 47267014#0 47267014#1 1068890124#0 1068890124#1 1068890124#2 1068890123#0 1068890123#1 1068890122#0 1068890122#1 12103210 1231065638#0 1231065638#1 730932886#0 730932886#1 815637230 900390008 900390004 900390006#0 900390006#1"/>
    </vehicle>

    <vehicle id="veh001_1134" type="passenger" depart="25332.00" arrival="25791.00">
        <route edges="-504456842 1235082253 1235082230 1125864850 1125864850-AddedOffRampEdge 1255166900 1068486118 686928344#0 686928344#1 1074542788 686928347#0 686928347#1 686928347#2 1205403621 1337115427 769245741 769245741-AddedOffRampEdge 1074560220 1074560217 52205569 1327579125 52205574 1214520060 1119387530 1068486055 1214520052 1254816432 1068486125 1068486126-AddedOnRampEdge 1068486126 1214520058 1131988441 967135082#0 967135082#1 967135082#2 1225879472#0 1225879472#1 39658122#0 39658122#1 39658122#2 41861750 -50843192 50592511 -1124326526 -176688371 -1124326527 -1119196426 1074542783 39674883#0 39674883#1"/>
    </vehicle>

    <vehicle id="veh001_2690" type="passenger" depart="25254.00" arrival="25806.00">
        <route edges="163764181#0 163764181#1 1337115417 23746713 23746716#0 23746716#1 23746716#2-AddedOnRampEdge 23746716#2 1337115414 1337115414-AddedOffRampEdge 23746717 12262312 12262312-AddedOffRampEdge 958890765 813852686 160249467-AddedOnRampEdge 160249467 12107064#4 12107064#0 12107064#1 958890767#1 958890763#1-AddedOnRampEdge 958890763#1 958890763#1-AddedOffRampEdge 1338279252#0 958890762 24447849#4-AddedOnRampEdge 24447849#4 24447849#5 24447849#6 24447849#7 24447849#8 24447849#9 982225957#0 982225957#1 78485050 1075724564#0 1075724564#1 1075724564#2 71293431#0 71293431#1 71293431#1-AddedOffRampEdge 1075724555 177573608#1 177573608#2 177573608#3 177573608#4 49225612 177573611 177573609#0 177573609#1 177573609#3 177573609#4 1074542782#0 1074542782#1 1074542782#2 1080472037 974204303#0 974204303#1 136752703 987438289#0 987438289#1 987438289#2 987438289#3 987438289#4 1323097565#0 1323097565#1 1323097565#2 1323097565#3 1092600147#0 1092600147#1 1092600147#2 1092600147#2-AddedOffRampEdge 1092600147#3 1092600147#4 39675267#0 -238492234#5 -238492234#4 -238492234#3 -238492234#2 -238492234#1 -238492234#0 238492234#0"/>
    </vehicle>

    <vehicle id="veh001_2862" type="passenger" depart="25366.00" arrival="25806.00">
        <route edges="-1068139751 136014469#0 136014469#1 136014464#0 -1101727304#2 -1101727304#1 -1101727304#0 -1298040489#1 -1298040489#0 -1298335708 145007013#0 145007013#2 145007013#4 1298335707 1255166891 1255166890 176150324#0 176150324#1 176150325 558885222#0 558885222#1 558885222#2 558885222#3 -145007026 -175978283 -175971816#3 -175971816#2 -175971816#1 -175971816#0 -50590325#1 -50590325#0 -1005002194#1 50590323#2 136232040 136232027 1074542795 -39658122#6 -39658122#5 -39658122#4 -39658122#3 -39658122#2 -39658122#1 -39658122#0 -1225879470#1 -1225879470#0 -1225879469"/>
    </vehicle>

    <vehicle id="veh001_2224" type="passenger" depart="25508.00" arrival="25808.00">
        <route edges="39658122#0 39658122#1 39658122#2 1225879468#0 1225879468#1 1332905219 50843190#0 50843190#1 1332905214#0 1332905214#1 1332905214#2 1273359361 1074409233#0 1074409233#1 1091862743#0 1091862743#1 49228828 49228665 1329667735#0 1329667735#1 1077697576#0 1077697576#1 49228634 44031964#1 44031964#2 44031964#3 44031964#4 44031964#5 1327579149 1124366624#0 1124366624#1 1124366624#2 -1124366652#1 -1124366652#0 -1324597581 -1124366653"/>
    </vehicle>

    <vehicle id="veh001_127" type="passenger" depart="25383.00" arrival="25809.00">
        <route edges="238492234#0 238492234#1 238492234#2 238492234#3 238492234#4 238492234#5 39675267#1 39675267#2 177743535#0 177743535#1 177743535#2 1080217652 1080217652-AddedOffRampEdge 982225960 1068139753#0 1068139753#1 1074542777#0 1074542777#1 1074542776#0 1074542776#1 1074542776#1-AddedOffRampEdge 50775229 477993576 477993575 10632119 47281536 1325293228-AddedOnRampEdge 1325293228 1332752598 1332752598-AddedOffRampEdge 24462312#0 24462312#1 24462312#2 24462312#3 1290456021#0 1290456021#1 178444039#1 178444039#2 178444039#3 178444039#4 178444039#5 178444039#6 1271499755 47322403 457547879#3 457547879#4"/>
    </vehicle>

    <vehicle id="veh001_121" type="passenger" depart="25290.00" arrival="25849.00">
        <route edges="900390006#1 1064816197#1 1064816197#2 900390007 900390003 1330117294 900390009#0 900390009#1 174737568#0 174737568#1 1326094917#0 1326094917#1 240666066#0 240666066#1 1414478166 1004587407#0 40322445#0 40322445#1 40322445#2 1273359371 813852688 813852688-AddedOffRampEdge 1337777290 813852690#0 813852690#1 51964855-AddedOnRampEdge 51964855 686928337#0 686928337#1 686928337#2 1074409234#0 1074409234#1 1074409234#2 1092372228#0 1092372228#1 1092372228#2 1323097555 136232030#0 136232030#1 1329667750 1329667751 151369004 151369006 1004820609#1 49171011#0 49171011#1"/>
    </vehicle>

    <vehicle id="veh001_2520" type="passenger" depart="25510.00" arrival="25857.00">
        <route edges="-126724514#0 126724529#2 126724529#3 -40040179#5 -40040179#4 -40040179#3 -40040179#2 -40109218#0 1273359337 1324405514#0 1324405514#1 1324405514#2 49225101#0 49225101#1 36337189 1260481148 1260481146 1260481145 1254816451 1211488953 676537352 266066454 1211488946 1211488947 1068434228 1204845147 1204845154 1068434225 1204845140 1204845141 1068434234#0 1068434234#0-AddedOffRampEdge 1068434234#1 1064394209#0 1064394209#1 1064394209#2 1209980948 1064394208 1209980961 1209980950 1209980960 68585243#0 72002956#1 72002956#2 1235145933"/>
    </vehicle>

    <vehicle id="veh001_1422" type="passenger" depart="25367.00" arrival="25862.00">
        <route edges="71293415#1 71293415#2 48755521 71293436 449197600#0 449197600#1 1330568385#0 -1067953244 -424580468#3 -424580468#2 -424580468#1 -424580468#0 13858291 168577951#0 168577951#1 168577951#2 168577949#0 168577949#1 168577949#2 168577949#3 1273359378 131507554#0 131507554#1 131507554#2 779247850 779247849#0 779247849#1 1068486062#0 1068486062#1 51177340 51177337 653858390 -686928356#3 -686928356#2 -686928356#1 -686928356#0 -1068879770 -48557082#1 -48557082#0 -1068879771 -1327579148 -1255166899 -1068879772 1068879773 48557294 -504456842"/>
    </vehicle>

    <vehicle id="veh001_1840" type="passenger" depart="25411.00" arrival="25862.00">
        <route edges="-50843173#3 -50843173#2 -50843173#1 1075505406#2 1075505406#3 1075505406#4 1075505402#0 1075505402#1 1323097544 1101656548 173471112 987437451 78485058#0 78485058#1 78485058#2 78485061#0 78485061#1 78485061#2 1101656547#0 1101656547#1 1101656547#2 987437442 73897730 73897732 40113020#0 987437450#0 987437450#1 449718776#0 449718776#1 449718771 449718773#0 449718773#1 449718773#2 1237953491#0 1237953491#1 1074771165#0 46975399#0 46975399#1 46975399#2 46975399#3 46975399#4 178583696#1 19997100 1327579141 15419971#0 15419971#1 15419971#2 1323097578 1292578228-AddedOnRampEdge 1292578228 1324405519 49224804#0 -40035904#2 -40035904#1"/>
    </vehicle>

    <vehicle id="veh001_2456" type="passenger" depart="25701.00" arrival="25877.00">
        <route edges="-176637359#2 -176637359#1 1092600147#2 1092600147#2-AddedOffRampEdge 1092600147#3 1092600147#4 39675267#0 -238492234#5 -238492234#4 -238492234#3 -238492234#2 -238492234#1 -238492234#0 238492234#0"/>
    </vehicle>

    <vehicle id="veh001_1368" type="passenger" depart="25615.00" arrival="25879.00">
        <route edges="-238492234#0 238492234#0 238492234#1 238492234#2 238492234#3 238492234#4 238492234#5 39675267#1 39675267#2 177743535#0 177743535#1 177743535#2 1080217652 1080217652-AddedOffRampEdge 982225960 1068139753#0 1068139753#1 1074542777#0 1074542777#1 1074542776#0 1074542776#1 1074542776#1-AddedOffRampEdge 1325293229 177741559#0 177741559#1 -1327290528 -1327290524 -1068139751"/>
    </vehicle>

    <vehicle id="veh001_2962" type="passenger" depart="25425.00" arrival="25880.00">
        <route edges="1262057048#0 1262057048#1 1262057048#2 1262057040 1262057037 1262057038 1324096361 1324039615#0 1324039615#0-AddedOffRampEdge 1324039615#1 1324039615#2 1262057029 1213743239 1217052997 1217053004 1217052996 39149255 1262057023#0-AddedOnRampEdge 1262057023#0 1262057023#1 1262057006 1292578240 1292578240-AddedOffRampEdge 1192417724#0 1192417724#1 1192417724#2 666886090 1217052982#0 1217052982#1 167052885#0 167052885#1 167052885#2 1196008695 40784445#0 40784445#1 40784445#3-AddedOnRampEdge 40784445#3 1255166892 166332795#0 166332795#1 1298040494-AddedOnRampEdge 1298040494 49219226 49219226-AddedOffRampEdge 1298040493 145007023 1255166890 176150324#0 176150324#1 176150325 558885222#0 558885222#1 558885222#2 558885222#3 -145007026 -175978283 -175971816#3 -175971816#2 -175971816#1 -175971816#0 175985052#1 175985052#2 175985052#3 175985052#4 175985052#5 1074542796#0 1074542796#1 1074542796#2 176026558#0 176026558#1 -39674883#1 39674883#1"/>
    </vehicle>

    <vehicle id="veh001_1295" type="passenger" depart="25455.00" arrival="25884.00">
        <route edges="39838789#2 1322916763#0 1322916763#1 1322916763#2 1063471490#0 1063471490#1 1063471490#2 1207401650#0 1207401650#1 1119184638#0 1119184638#1 1119184638#2 1119184638#3 900291518 1124366647 1005413729#0 1005413729#1 1005413729#2 1005413729#3 1119184637#0 1119184637#1 1119184637#2 44477353#0 44477353#1 44477353#2 44477353#3 1068879764 967979544 1119412290#0 1119412290#1 47401882 1231048984 57395636 57157082#0 57157082#1 1235145931#0 1235145931#1 1235145931#2 1235145931#3 1235145933"/>
    </vehicle>

    <vehicle id="veh001_361" type="passenger" depart="25778.00" arrival="25892.00">
        <route edges="39674883#1 -39674883#1 -39674883#0 -1074542783 1119196426 1124326527 176688371 1124326526 -50592511 50843192 -41861750 -39658122#2 -39658122#1 -39658122#0 -1225879470#1 -1225879470#0 -1225879469"/>
    </vehicle>

    <vehicle id="veh001_2434" type="passenger" depart="25381.00" arrival="25918.00">
        <route edges="163764181#0 163764181#1 1337115417 23746713 23746716#0 23746716#1 23746716#2-AddedOnRampEdge 23746716#2 1337115414 1337115414-AddedOffRampEdge 23746717 12262312 12262312-AddedOffRampEdge 1337777273 813852682#0 813858239 813852687#1-AddedOnRampEdge 813852687#1 813852676#0 813852676#1 813852676#2 813852673 1068434237 50372122#0 50372122#1 50372122#2 50372122#3 50372122#4 1124366649 1085107695#0 1085107695#1 1085107695#2 -1068434254#1 -1068434254#0 -1124366648 -1273359394 -449197596#3 -449197596#2 -449197596#1 -449197596#0 85796872 492977130#0 492977130#1 492977130#2 492977130#3 492977130#4 85796877#0 85796877#1 145391393#1 145391393#2 -47087489 -47087481 -1067852464#1 220775319 -220770272"/>
    </vehicle>

    <vehicle id="veh001_640" type="passenger" depart="25519.00" arrival="25923.00">
        <route edges="1235145933 967979543 1231048979 1209980949 1064394214 1209980957 1209980953 1209980954 1329415581 1064394216 1233759506 1211488938 1209980967 1064394215 1064398320#0 1064398320#1 36337192#0 36337192#1 1329415582#0 1329415582#1 1329415582#2 1329415582#3 421846086#0 421846086#1 1332789609#0 1332789609#1 1332789609#2 1332789609#3 1273359340 -1273359338#2 -1273359338#1 -1273359338#0 -1273359339#2 -1273359339#1 -1273359339#0 47450800#0 -126724514#1 -126724514#0"/>
    </vehicle>

    <vehicle id="veh001_2352" type="passenger" depart="25858.00" arrival="25926.00">
        <route edges="240666074#0 240666074#2 900390006#1"/>
    </vehicle>

    <vehicle id="veh001_2194" type="passenger" depart="25497.00" arrival="25930.00">
        <route edges="238492234#0 238492234#1 238492234#2 238492234#3 238492234#4 238492234#5 39675267#1 39675267#2 177743535#0 -1080217655#2 -1080217655#1 -1080217655#0 -1080217657 -24462315#4 -24462315#3 -24462315#2 -24462315#1 -24462315#0 -987438288 987437456#0 987437456#1 987437456#2 987437456#3 1077974669#0 1077974669#1 1077974669#2 136752710 136752695#0 136752695#1 136752695#2 136752695#3 1074542798#0 -1080472036#0 -47281532#3 -47281532#2 -47281532#1 -47281532#0 1074542796#0 1074542796#1 1074542796#2 176026558#0 176026558#1 -39674883#1 -39674883#0 -1074542783 1119196426 1124326527 176688371 1124326526 -50592511 50843192 -41861750 -39658122#2 -39658122#1 -39658122#0 -1225879470#1 50843170"/>
    </vehicle>

    <vehicle id="veh001_2405" type="passenger" depart="25374.00" arrival="25932.00">
        <route edges="163764181#0 163764181#1 1337115417 23746713 23746716#0 23746716#1 23746716#2-AddedOnRampEdge 23746716#2 1337115414 1337115414-AddedOffRampEdge 23746717 12262312 12262312-AddedOffRampEdge 958890765 813852686 160249467-AddedOnRampEdge 160249467 12107064#4 12107064#0 12107064#1 958890767#1 958890763#1-AddedOnRampEdge 958890763#1 958890763#1-AddedOffRampEdge 1338279252#0 958890762 24447849#4-AddedOnRampEdge 24447849#4 24447849#5 24447849#6 24447849#7 24447849#8 24447849#9 982225957#0 982225957#1 78485050 1075724564#0 1075724564#1 1075724564#2 71293431#0 71293431#1 71293431#1-AddedOffRampEdge 1075724555 177573608#1 177573608#2 177573608#3 177573608#4 49225612 177573611 177573609#0 177573609#1 177573609#3 177573609#4 1074542782#0 1074542782#1 1074542782#2 1080472037 974204303#0 974204303#1 136752703 987438289#0 987438289#1 987438289#2 987438289#3 987438289#4 1323097565#0 1323097565#1 1323097565#2 1323097565#3 1092600147#0 1092600147#1 1092600147#2 1092600147#2-AddedOffRampEdge 1092600147#3 -1080217656#3 -1080217656#2 -1080217656#1"/>
    </vehicle>

    <vehicle id="veh001_2923" type="passenger" depart="25648.00" arrival="25934.00">
        <route edges="169004589#0 169004589#1 169004589#2 1218767012#0 1218767012#1 1218767012#2 1218767012#3 159942186 1213743241 159942194#0 159942194#1 12080429#0 12080429#1 967998589 12080417 47281527 47281525 1256479008-AddedOnRampEdge 1256479008 1325293222 1332752598 1332752598-AddedOffRampEdge 1153936294 47281535 50775228 69156910#0-AddedOnRampEdge 69156910#0 1074542776#1 1074542776#1-AddedOffRampEdge 1325293229 177741559#0 177741559#1 -1327290528 -1327290524 -1068139751"/>
    </vehicle>

    <vehicle id="veh001_35" type="passenger" depart="25473.00" arrival="25940.00">
        <route edges="238492234#0 238492234#1 238492234#2 238492234#3 238492234#4 238492234#5 39675267#1 39675267#2 177743535#0 -1080217655#2 -1080217655#1 -1080217655#0 -1080217657 -24462315#4 -24462315#3 -24462315#2 -24462315#1 -24462315#0 -987438288 987437456#0 987437456#1 987437456#2 987437456#3 1077974669#0 1077974669#1 1077974669#2 136752710 136752695#0 136752695#1 136752695#2 136752695#3 1074542798#0 -1080472036#0 -47281532#3 -47281532#2 -47281532#1 -47281532#0 1074542796#0 1074542796#1 1074542796#2 176026558#0 176026558#1 -39674883#1 -39674883#0 -1074542783 1119196426 1124326527 176688371 1124326526 -50592511 50843192 -41861750 -39658122#2 -39658122#1 -39658122#0 -1225879472#1 -1225879472#0 967135080#0 967135080#1 967135080#2 1092372218"/>
    </vehicle>
